
*************** JDFTx 1.7.0 (git hash 7d4d6a67) ***************

Start date and time: Mon Nov 20 02:24:01 2023
Executable /global/cfs/cdirs/m4025/Software/Perlmutter/JDFTx/build-gpu/jdftx_gpu with command-line: -i in -o out
Running on hosts (process indices):  nid003737 (0-3)
Divided in process groups (process indices):  0 (0)  1 (1)  2 (2)  3 (3)
gpuInit: Found compatible cuda device 0 'NVIDIA A100-SXM4-40GB'
gpuInit: Found compatible cuda device 1 'NVIDIA A100-SXM4-40GB'
gpuInit: Found compatible cuda device 2 'NVIDIA A100-SXM4-40GB'
gpuInit: Found compatible cuda device 3 'NVIDIA A100-SXM4-40GB'
gpuInit: Selected device 0
Resource initialization completed at t[s]:      5.06
Run totals: 4 processes, 128 threads, 4 GPUs
Memory pool size: 36000 MB (per process)


Input parsed successfully to the following command list (including defaults):

band-projection-params yes no
basis kpoint-dependent
converge-empty-states yes
coords-type Cartesian
core-overlap-check none
coulomb-interaction Periodic
davidson-band-ratio 1.1
dump End State Forces ElecDensity Dtot BandEigs BandProjections Fillings Ecomponents Kpoints
dump 
dump 
dump 
dump 
dump 
dump 
dump 
dump 
dump-name $VAR
elec-cutoff 20 100
elec-eigen-algo Davidson
elec-ex-corr gga-PBE
elec-initial-magnetization 0.000000 no
elec-n-bands 456
elec-smearing Fermi 0.001
electronic-minimize  \
	dirUpdateScheme      FletcherReeves \
	linminMethod         DirUpdateRecommended \
	nIterations          100 \
	history              15 \
	knormThreshold       0 \
	energyDiffThreshold  1e-07 \
	nEnergyDiff          2 \
	alphaTstart          1 \
	alphaTmin            1e-10 \
	updateTestStepSize   yes \
	alphaTreduceFactor   0.1 \
	alphaTincreaseFactor 3 \
	nAlphaAdjustMax      3 \
	wolfeEnergy          0.0001 \
	wolfeGradient        0.9 \
	fdTest               no
exchange-regularization WignerSeitzTruncated
fluid LinearPCM 298.000000 1.013250
fluid-anion F- 0.5 MeanFieldLJ \
	epsBulk 1 \
	pMol 0 \
	epsInf 1 \
	Pvap 0 \
	sigmaBulk 0 \
	Rvdw 2.24877 \
	Res 0 \
	tauNuc 343133
fluid-cation Na+ 0.5 MeanFieldLJ \
	epsBulk 1 \
	pMol 0 \
	epsInf 1 \
	Pvap 0 \
	sigmaBulk 0 \
	Rvdw 2.19208 \
	Res 0 \
	tauNuc 343133
fluid-ex-corr (null) lda-PZ
fluid-gummel-loop 10 1.000000e-05
fluid-minimize  \
	dirUpdateScheme      PolakRibiere \
	linminMethod         DirUpdateRecommended \
	nIterations          400 \
	history              15 \
	knormThreshold       1e-11 \
	energyDiffThreshold  0 \
	nEnergyDiff          2 \
	alphaTstart          1 \
	alphaTmin            1e-10 \
	updateTestStepSize   yes \
	alphaTreduceFactor   0.1 \
	alphaTincreaseFactor 3 \
	nAlphaAdjustMax      6 \
	wolfeEnergy          0.0001 \
	wolfeGradient        0.9 \
	fdTest               no
fluid-solvent H2O 55.338 ScalarEOS \
	epsBulk 78.4 \
	pMol 0.92466 \
	epsInf 1.77 \
	Pvap 1.06736e-10 \
	sigmaBulk 4.62e-05 \
	Rvdw 2.61727 \
	Res 1.42 \
	tauNuc 343133 \
	poleEl 15 7 1
forces-output-coords Positions
initial-state $VAR
ion Cu  10.082944999999999  11.763477999999997  35.290269000000002 0
ion Cu   0.000002000000000   1.680461000000000  35.290272999999999 0
ion Cu   3.361029000000000  11.763476999999998  35.290270999999990 0
ion Cu  10.082947000000001   5.041434000000000  35.290273999999989 0
ion Cu   3.361028000000000   5.041435000000000  35.290273999999989 0
ion Cu  10.082947000000001  11.763474000000000  28.568402999999996 0
ion Cu   0.000003000000000   1.680462000000000  28.568401000000001 0
ion Cu   3.361026000000000  11.763474000000000  28.568401000000001 0
ion Cu  10.082948000000000   5.041435000000000  28.568400000000000 0
ion Cu   3.361028000000000   5.041434000000000  28.568401999999995 0
ion Cu   6.722004000000000   1.680460000000000  35.290269000000002 0
ion Cu   0.000002000000000   8.402479000000000  35.290273999999989 0
ion Cu   6.722003000000000   8.402479000000000  35.290274999999994 0
ion Cu  10.082943999999999   1.680460000000000  31.929362999999995 0
ion Cu  13.443941000000001  11.763474999999998  31.929361999999998 0
ion Cu   3.361032000000000   1.680461000000000  31.929361999999998 0
ion Cu   0.000002000000000   5.041435000000000  31.929360999999997 0
ion Cu   6.722004000000000  11.763479999999998  31.929361999999998 0
ion Cu   6.722003000000000   1.680463000000000  28.568403999999997 0
ion Cu  10.082948000000000   8.402480000000001  31.929359999999999 0
ion Cu   0.000001000000000   8.402480000000001  28.568404999999998 0
ion Cu   3.361028000000000   8.402479000000000  31.929360999999997 0
ion Cu   6.722003000000000   5.041429000000000  31.929360999999997 0
ion Cu   6.722003000000000   8.402477999999999  28.568400000000000 0
ion Cu  10.082835999999999   1.686534000000000  38.768338999999990 1
ion Cu   0.006100000000000  11.763269999999999  38.768398999999995 1
ion Cu   3.360977000000000   1.692452000000000  38.726826999999993 1
ion Cu   0.011986000000000   5.041391000000000  38.726743999999989 1
ion Cu  10.082841000000000  11.763276999999999  42.176583999999991 1
ion Cu   0.023029000000000   1.703500000000000  42.218551999999995 1
ion Cu   3.360941000000000  11.763403999999998  42.113669999999999 1
ion Cu  10.082862000000000   5.041326000000000  42.113645999999996 1
ion Cu   3.360906000000000   5.041175000000000  42.143426999999996 1
ion Cu   6.715754000000000  11.763280999999999  38.768456999999998 1
ion Cu  10.082846000000000   8.396195000000001  38.768507000000000 1
ion Cu   3.360986000000000   8.390309000000000  38.726798999999993 1
ion Cu   6.709836000000000   5.041401000000000  38.726875000000000 1
ion Cu   6.698703000000000   1.703538000000000  42.218812999999997 1
ion Cu   0.023245000000000   8.379009999999999  42.218753999999990 1
ion Cu   6.698551000000000   8.379035999999999  42.218986999999998 1
ion H   3.360561999999999   5.042373999999999  44.976779999999991 1
ion-species GBRV_v1.5/$ID_pbe_v1.uspp
ion-width Ecut
ionic-minimize  \
	dirUpdateScheme      L-BFGS \
	linminMethod         DirUpdateRecommended \
	nIterations          100 \
	history              15 \
	knormThreshold       0.0001 \
	energyDiffThreshold  1e-06 \
	nEnergyDiff          2 \
	alphaTstart          1 \
	alphaTmin            1e-10 \
	updateTestStepSize   yes \
	alphaTreduceFactor   0.1 \
	alphaTincreaseFactor 3 \
	nAlphaAdjustMax      3 \
	wolfeEnergy          0.0001 \
	wolfeGradient        0.9 \
	fdTest               no
kpoint   0.000000000000   0.000000000000   0.000000000000  1.00000000000000
kpoint-folding 4 4 1 
latt-move-scale 0 0 0
latt-scale 1 1 1 
lattice  \
	  13.443941000000001    0.000000000000000    0.000000000000000  \
	   0.000000000000000   13.443939000000000    0.000000000000000  \
	   0.000000000000000    0.000000000000000   70.580742000000001 
lattice-minimize  \
	dirUpdateScheme      L-BFGS \
	linminMethod         DirUpdateRecommended \
	nIterations          0 \
	history              15 \
	knormThreshold       0 \
	energyDiffThreshold  1e-06 \
	nEnergyDiff          2 \
	alphaTstart          1 \
	alphaTmin            1e-10 \
	updateTestStepSize   yes \
	alphaTreduceFactor   0.1 \
	alphaTincreaseFactor 3 \
	nAlphaAdjustMax      3 \
	wolfeEnergy          0.0001 \
	wolfeGradient        0.9 \
	fdTest               no
lcao-params -1 1e-06 0.001
pcm-variant CANDLE
spintype z-spin
subspace-rotation-factor 1 yes
symmetries none
symmetry-threshold 0.0001
target-mu -0.171 no

van-der-waals D3


Applied RMS atom displacement 0 bohrs to make symmetries exact.

---------- Initializing the Grid ----------
R = 
[      13.4439            0            0  ]
[            0      13.4439            0  ]
[            0            0      70.5807  ]
unit cell volume = 12756.7
G =
[   0.467362          0          0  ]
[          0   0.467362          0  ]
[          0          0  0.0890212  ]
Minimum fftbox size, Smin = [  64  64  320  ]
Chosen fftbox size, S = [  64  64  320  ]

---------- Initializing tighter grid for wavefunction operations ----------
R = 
[      13.4439            0            0  ]
[            0      13.4439            0  ]
[            0            0      70.5807  ]
unit cell volume = 12756.7
G =
[   0.467362          0          0  ]
[          0   0.467362          0  ]
[          0          0  0.0890212  ]
Minimum fftbox size, Smin = [  56  56  288  ]
Chosen fftbox size, S = [  56  56  288  ]

---------- Exchange Correlation functional ----------
Initalized PBE GGA exchange.
Initalized PBE GGA correlation.

---------- Setting up pseudopotentials ----------
Width of ionic core gaussian charges (only for fluid interactions / plotting) set to 0.397384

Reading pseudopotential file '/global/u2/r/ravish/Project-BEAST/Software/Perlmutter/JDFTx/build-gpu/pseudopotentials/GBRV_v1.5/cu_pbe_v1.uspp':
  Title: Cu.  Created by USPP 7.3.6 on 3-2-2014
  Reference state energy: -201.059491.  19 valence electrons in orbitals:
    |300>  occupation: 2  eigenvalue: -5.020764
    |310>  occupation: 6  eigenvalue: -3.445588
    |320>  occupation: 8  eigenvalue: -0.925168
    |400>  occupation: 2  eigenvalue: -0.567638
    |410>  occupation: 0  eigenvalue: -0.326154
  lMax: 2  lLocal: 3  QijEcut: 6
  6 projectors sampled on a log grid with 613 points:
    l: 0  eig: -5.020767  rCut: 1.4
    l: 0  eig: -0.567640  rCut: 1.4
    l: 1  eig: -3.445589  rCut: 1.55
    l: 1  eig: -0.326157  rCut: 1.55
    l: 2  eig: -0.925170  rCut: 1.5
    l: 2  eig: 1.500000  rCut: 1.5
  Partial core density with radius 0.8
  Transforming core density to a uniform radial grid of dG=0.02 with 1280 points.
  Transforming local potential to a uniform radial grid of dG=0.02 with 1280 points.
  Transforming nonlocal projectors to a uniform radial grid of dG=0.02 with 432 points.
  Transforming density augmentations to a uniform radial grid of dG=0.02 with 1280 points.
  Transforming atomic orbitals to a uniform radial grid of dG=0.02 with 432 points.
  Core radius for overlap checks: 1.55 bohrs.

Reading pseudopotential file '/global/u2/r/ravish/Project-BEAST/Software/Perlmutter/JDFTx/build-gpu/pseudopotentials/GBRV_v1.5/h_pbe_v1.uspp':
  Title: H.  Created by USPP 7.3.6 on 2-4-15
  Reference state energy: -0.458849.  1 valence electrons in orbitals:
    |100>  occupation: 1  eigenvalue: -0.238595
  lMax: 0  lLocal: 1  QijEcut: 6
  2 projectors sampled on a log grid with 395 points:
    l: 0  eig: -0.238595  rCut: 1.2
    l: 0  eig: 1.000000  rCut: 1.2
  Transforming local potential to a uniform radial grid of dG=0.02 with 1280 points.
  Transforming nonlocal projectors to a uniform radial grid of dG=0.02 with 432 points.
  Transforming density augmentations to a uniform radial grid of dG=0.02 with 1280 points.
  Transforming atomic orbitals to a uniform radial grid of dG=0.02 with 432 points.
  Core radius for overlap checks: 1.20 bohrs.

Initialized 2 species with 41 total atoms.

Folded 1 k-points by 4x4x1 to 16 k-points.

---------- Setting up k-points, bands, fillings ----------
No reducable k-points. 
Computing the number of bands and number of electrons
Calculating initial fillings.
nElectrons: 761.000000   nBands: 456   nStates: 32

----- Setting up reduced wavefunction bases (one per k-point) -----
average nbasis = 54507.438 , ideal nbasis = 54497.721

Initializing DFT-D3 calculator:
	Parameters set for gga-PBE functional
	s6:  1.000  s_r6:  1.217
	s8:  0.722  s_r8:  1.000
	Per-atom parameters loaded for:
	Cu:  sqrtQ[a0]:  5.226  Rcov[a0]:  1.909  CN: [ 0.00 0.96 ]
	 H:  sqrtQ[a0]:  2.007  Rcov[a0]:  0.605  CN: [ 0.91 0.00 ]

Initializing DFT-D2 calculator for fluid / solvation:
	Cu:  C6:  187.33 Eh-a0^6  R0: 2.952 a0
	 H:  C6:    2.43 Eh-a0^6  R0: 1.892 a0

---------- Setting up ewald sum ----------
Optimum gaussian width for ewald sums = 5.019871 bohr.
Real space sum over 605 unit cells with max indices [  5  5  2  ]
Reciprocal space sum over 7943 terms with max indices [  6  6  23  ]

Computing DFT-D3 correction:
# coordination-number Cu 9.015 9.070 9.066 9.066 9.138 6.194 6.194 6.194 6.194 6.193 9.070 9.070 9.070 9.234 9.234 9.235 9.235 9.234 6.194 9.234 6.193 9.235 9.235 6.194 8.853 8.853 8.955 8.955 5.993 5.964 6.170 6.170 7.136 8.853 8.853 8.955 8.955 5.964 5.964 5.963
# coordination-number H 0.961
# diagonal-C6 Cu 175.00 175.00 175.00 175.00 175.00 175.00 175.00 175.00 175.00 175.00 175.00 175.00 175.00 175.00 175.00 175.00 175.00 175.00 175.00 175.00 175.00 175.00 175.00 175.00 175.00 175.00 175.00 175.00 175.00 175.00 175.00 175.00 175.00 175.00 175.00 175.00 175.00 175.00 175.00 175.00
# diagonal-C6 H 3.11
EvdW_6 =   -0.220789
EvdW_8 =   -0.341399

---------- Allocating electronic variables ----------
Initializing wave functions:  linear combination of atomic orbitals
Cu pseudo-atom occupations:   s ( 2 1 )  p ( 6 0 )  d ( 10 )
H pseudo-atom occupations:   s ( 1 )
	FillingsUpdate:  mu: -0.171000000  nElectrons: 761.000000  magneticMoment: [ Abs: 0.28843  Tot: -0.00344 ]
LCAOMinimize: Iter:   0  G: -7776.5944092247000299  |grad|_K:  2.152e-02  alpha:  1.000e+00
LCAOMinimize: 	Step increased G by 1.224369e+03, reducing alpha to 3.614220e-02.
LCAOMinimize: 	Step increased G by 7.259104e+01, reducing alpha to 3.614220e-03.
	FillingsUpdate:  mu: -0.171000000  nElectrons: 761.000000  magneticMoment: [ Abs: 0.28958  Tot: -0.00496 ]
LCAOMinimize: Iter:   1  G: -7788.3774342056613023  |grad|_K:  1.508e-02  alpha:  3.614e-03  linmin: -1.730e-01  cgtest:  9.354e-01  t[s]:     35.47
LCAOMinimize: Encountered beta<0, resetting CG.
LCAOMinimize: 	Predicted alpha/alphaT>3.000000, increasing alphaT to 1.084266e-02.
	FillingsUpdate:  mu: -0.171000000  nElectrons: 761.000000  magneticMoment: [ Abs: 0.29639  Tot: +0.00073 ]
LCAOMinimize: Iter:   2  G: -7803.4603922056048759  |grad|_K:  1.795e-02  alpha:  2.203e-02  linmin:  5.452e-02  cgtest: -2.609e-01  t[s]:     38.11
LCAOMinimize: 	Predicted alpha/alphaT>3.000000, increasing alphaT to 6.610069e-02.
	FillingsUpdate:  mu: -0.171000000  nElectrons: 761.000000  magneticMoment: [ Abs: 0.00424  Tot: -0.00056 ]
LCAOMinimize: Iter:   3  G: -7882.2803523472448433  |grad|_K:  2.529e-02  alpha:  1.049e-01  linmin: -8.869e-03  cgtest:  9.602e-01  t[s]:     40.75
	FillingsUpdate:  mu: -0.171000000  nElectrons: 761.000000  magneticMoment: [ Abs: 0.00096  Tot: -0.00007 ]
LCAOMinimize: Iter:   4  G: -7919.9375934142153710  |grad|_K:  3.433e-03  alpha:  5.477e-02  linmin:  2.940e-02  cgtest: -1.319e+00  t[s]:     42.88
	FillingsUpdate:  mu: -0.171000000  nElectrons: 761.000000  magneticMoment: [ Abs: 0.00125  Tot: -0.00058 ]
LCAOMinimize: Iter:   5  G: -7924.4823498666328305  |grad|_K:  2.306e-03  alpha:  1.130e-01  linmin:  3.730e-04  cgtest:  1.920e-01  t[s]:     45.01
LCAOMinimize: 	Predicted alpha/alphaT>3.000000, increasing alphaT to 3.388986e-01.
	FillingsUpdate:  mu: -0.171000000  nElectrons: 761.000000  magneticMoment: [ Abs: 0.00129  Tot: -0.00022 ]
LCAOMinimize: Iter:   6  G: -7926.0342858746080310  |grad|_K:  2.287e-03  alpha:  3.301e-02  linmin: -8.857e-02  cgtest:  9.137e-01  t[s]:     47.62
LCAOMinimize: 	Predicted alpha/alphaT>3.000000, increasing alphaT to 9.902700e-02.
LCAOMinimize: 	Predicted alpha/alphaT>3.000000, increasing alphaT to 2.970810e-01.
	FillingsUpdate:  mu: -0.171000000  nElectrons: 761.000000  magneticMoment: [ Abs: 0.00134  Tot: +0.00012 ]
LCAOMinimize: Iter:   7  G: -7928.9518077016018651  |grad|_K:  2.117e-03  alpha:  6.219e-02  linmin: -9.083e-02  cgtest:  7.491e-01  t[s]:     50.79
LCAOMinimize: 	Predicted alpha/alphaT>3.000000, increasing alphaT to 1.865571e-01.
LCAOMinimize: 	Step increased G by 6.336032e-01, reducing alpha to 2.213805e-02.
	FillingsUpdate:  mu: -0.171000000  nElectrons: 761.000000  magneticMoment: [ Abs: 0.00139  Tot: +0.00008 ]
LCAOMinimize: Iter:   8  G: -7929.9567832724387699  |grad|_K:  1.925e-03  alpha:  2.214e-02  linmin: -1.604e-01  cgtest:  9.571e-01  t[s]:     55.05
LCAOMinimize: Encountered beta<0, resetting CG.
LCAOMinimize: 	Predicted alpha/alphaT>3.000000, increasing alphaT to 6.641416e-02.
LCAOMinimize: 	Predicted alpha/alphaT>3.000000, increasing alphaT to 1.992425e-01.
LCAOMinimize: 	Predicted alpha/alphaT>3.000000, increasing alphaT to 5.977274e-01.
LCAOMinimize: 	Step increased G by 4.704289e+02, reducing alpha to 6.069537e-02.
	FillingsUpdate:  mu: -0.171000000  nElectrons: 761.000000  magneticMoment: [ Abs: 0.00155  Tot: +0.00004 ]
LCAOMinimize: Iter:   9  G: -7931.8820060649295556  |grad|_K:  1.742e-03  alpha:  6.070e-02  linmin: -2.194e-01  cgtest:  8.817e-01  t[s]:     59.84
LCAOMinimize: 	Wrong curvature in test step, increasing alphaT to 1.820861e-01.
	FillingsUpdate:  mu: -0.171000000  nElectrons: 761.000000  magneticMoment: [ Abs: 0.00171  Tot: +0.00001 ]
LCAOMinimize: Iter:  10  G: -7933.5298134361610209  |grad|_K:  1.613e-03  alpha: -1.313e+01  linmin: -2.343e-01  cgtest:  8.724e-01  t[s]:     61.84
	FillingsUpdate:  mu: -0.171000000  nElectrons: 761.000000  magneticMoment: [ Abs: 0.00178  Tot: +0.00000 ]
LCAOMinimize: Iter:  11  G: -7934.1162253377679008  |grad|_K:  1.552e-03  alpha:  2.434e-02  linmin: -2.579e-01  cgtest:  9.485e-01  t[s]:     63.97
LCAOMinimize: 	Wrong curvature in test step, increasing alphaT to 7.303224e-02.
	FillingsUpdate:  mu: -0.171000000  nElectrons: 761.000000  magneticMoment: [ Abs: 0.00186  Tot: -0.00002 ]
LCAOMinimize: Iter:  12  G: -7934.6389035481388419  |grad|_K:  1.502e-03  alpha: -1.919e+00  linmin: -2.435e-01  cgtest:  9.543e-01  t[s]:     65.97
	FillingsUpdate:  mu: -0.171000000  nElectrons: 761.000000  magneticMoment: [ Abs: 0.00196  Tot: -0.00004 ]
LCAOMinimize: Iter:  13  G: -7935.3217363286530599  |grad|_K:  1.421e-03  alpha:  3.402e-02  linmin: -2.134e-01  cgtest:  9.362e-01  t[s]:     68.13
LCAOMinimize: 	Predicted alpha/alphaT>3.000000, increasing alphaT to 1.020534e-01.
LCAOMinimize: 	Predicted alpha/alphaT>3.000000, increasing alphaT to 3.061602e-01.
	FillingsUpdate:  mu: -0.171000000  nElectrons: 761.000000  magneticMoment: [ Abs: 0.00212  Tot: -0.00004 ]
LCAOMinimize: Iter:  14  G: -7936.2755745094509621  |grad|_K:  1.253e-03  alpha:  5.398e-02  linmin: -1.979e-01  cgtest:  9.020e-01  t[s]:     71.27
LCAOMinimize: Encountered beta<0, resetting CG.
LCAOMinimize: 	Predicted alpha/alphaT>3.000000, increasing alphaT to 1.619300e-01.
LCAOMinimize: 	Step increased G by 1.001955e+00, reducing alpha to 2.746412e-02.
	FillingsUpdate:  mu: -0.171000000  nElectrons: 761.000000  magneticMoment: [ Abs: 0.00218  Tot: -0.00004 ]
LCAOMinimize: Iter:  15  G: -7936.6414550305235025  |grad|_K:  1.148e-03  alpha:  2.746e-02  linmin: -2.597e-01  cgtest:  9.721e-01  t[s]:     75.63
LCAOMinimize: Encountered beta<0, resetting CG.
LCAOMinimize: 	Predicted alpha/alphaT>3.000000, increasing alphaT to 8.239237e-02.
LCAOMinimize: 	Predicted alpha/alphaT>3.000000, increasing alphaT to 2.471771e-01.
	FillingsUpdate:  mu: -0.171000000  nElectrons: 761.000000  magneticMoment: [ Abs: 0.00268  Tot: -0.00009 ]
LCAOMinimize: Iter:  16  G: -7937.9279519692126996  |grad|_K:  8.705e-04  alpha:  1.574e-01  linmin: -4.318e-02  cgtest:  3.632e-01  t[s]:     78.75
	FillingsUpdate:  mu: -0.171000000  nElectrons: 761.000000  magneticMoment: [ Abs: 0.00273  Tot: -0.00013 ]
LCAOMinimize: Iter:  17  G: -7938.0399690162375919  |grad|_K:  5.690e-04  alpha:  2.640e-02  linmin: -4.292e-02  cgtest:  5.483e-02  t[s]:     80.88
	FillingsUpdate:  mu: -0.171000000  nElectrons: 761.000000  magneticMoment: [ Abs: 0.00281  Tot: -0.00012 ]
LCAOMinimize: Iter:  18  G: -7938.1166030089752894  |grad|_K:  4.538e-04  alpha:  4.834e-02  linmin:  1.382e-02  cgtest: -3.835e-01  t[s]:     83.02
	FillingsUpdate:  mu: -0.171000000  nElectrons: 761.000000  magneticMoment: [ Abs: 0.00294  Tot: -0.00014 ]
LCAOMinimize: Iter:  19  G: -7938.1546580815165726  |grad|_K:  3.469e-04  alpha:  4.779e-02  linmin:  2.758e-03  cgtest:  5.704e-01  t[s]:     85.22
	FillingsUpdate:  mu: -0.171000000  nElectrons: 761.000000  magneticMoment: [ Abs: 0.00297  Tot: -0.00015 ]
LCAOMinimize: Iter:  20  G: -7938.1740581012254552  |grad|_K:  1.320e-04  alpha:  3.643e-02  linmin:  3.723e-03  cgtest:  2.269e-02  t[s]:     87.36
	FillingsUpdate:  mu: -0.171000000  nElectrons: 761.000000  magneticMoment: [ Abs: 0.00296  Tot: -0.00014 ]
LCAOMinimize: Iter:  21  G: -7938.1773897952662082  |grad|_K:  1.530e-04  alpha:  4.429e-02  linmin:  6.551e-04  cgtest:  3.463e-02  t[s]:     89.49
	FillingsUpdate:  mu: -0.171000000  nElectrons: 761.000000  magneticMoment: [ Abs: 0.00295  Tot: -0.00014 ]
LCAOMinimize: Iter:  22  G: -7938.1798001270453824  |grad|_K:  8.179e-05  alpha:  2.422e-02  linmin:  2.475e-03  cgtest: -2.625e-02  t[s]:     91.63
LCAOMinimize: 	Predicted alpha/alphaT>3.000000, increasing alphaT to 7.265123e-02.
	FillingsUpdate:  mu: -0.171000000  nElectrons: 761.000000  magneticMoment: [ Abs: 0.00292  Tot: -0.00012 ]
LCAOMinimize: Iter:  23  G: -7938.1840308616510811  |grad|_K:  5.845e-05  alpha:  1.463e-01  linmin: -9.223e-04  cgtest:  3.090e-02  t[s]:     94.26
	FillingsUpdate:  mu: -0.171000000  nElectrons: 761.000000  magneticMoment: [ Abs: 0.00292  Tot: -0.00011 ]
LCAOMinimize: Iter:  24  G: -7938.1845322207173012  |grad|_K:  4.130e-05  alpha:  3.380e-02  linmin: -2.047e-03  cgtest:  1.251e-02  t[s]:     96.45
	FillingsUpdate:  mu: -0.171000000  nElectrons: 761.000000  magneticMoment: [ Abs: 0.00293  Tot: -0.00011 ]
LCAOMinimize: Iter:  25  G: -7938.1846898695685013  |grad|_K:  2.696e-05  alpha:  2.124e-02  linmin: -6.096e-03  cgtest:  3.280e-02  t[s]:     98.61
LCAOMinimize: 	Predicted alpha/alphaT>3.000000, increasing alphaT to 6.372456e-02.
	FillingsUpdate:  mu: -0.171000000  nElectrons: 761.000000  magneticMoment: [ Abs: 0.00293  Tot: -0.00010 ]
LCAOMinimize: Iter:  26  G: -7938.1849244384738995  |grad|_K:  2.164e-05  alpha:  7.091e-02  linmin: -8.132e-03  cgtest: -8.644e-03  t[s]:    101.32
	FillingsUpdate:  mu: -0.171000000  nElectrons: 761.000000  magneticMoment: [ Abs: 0.00294  Tot: -0.00009 ]
LCAOMinimize: Iter:  27  G: -7938.1851964804573072  |grad|_K:  3.204e-05  alpha:  1.171e-01  linmin: -7.092e-03  cgtest:  8.070e-02  t[s]:    103.45
	FillingsUpdate:  mu: -0.171000000  nElectrons: 761.000000  magneticMoment: [ Abs: 0.00295  Tot: -0.00008 ]
LCAOMinimize: Iter:  28  G: -7938.1853015731903724  |grad|_K:  1.677e-05  alpha:  2.078e-02  linmin: -3.038e-03  cgtest: -3.766e-01  t[s]:    105.62
	FillingsUpdate:  mu: -0.171000000  nElectrons: 761.000000  magneticMoment: [ Abs: 0.00296  Tot: -0.00008 ]
LCAOMinimize: Iter:  29  G: -7938.1853552067896089  |grad|_K:  1.186e-05  alpha:  3.538e-02  linmin: -1.983e-02  cgtest:  7.574e-01  t[s]:    107.75
LCAOMinimize: Encountered beta<0, resetting CG.
	FillingsUpdate:  mu: -0.171000000  nElectrons: 761.000000  magneticMoment: [ Abs: 0.00296  Tot: -0.00008 ]
LCAOMinimize: Iter:  30  G: -7938.1853722328451113  |grad|_K:  1.189e-05  alpha:  2.757e-02  linmin:  3.284e-03  cgtest: -2.762e-02  t[s]:    109.92
LCAOMinimize: None of the convergence criteria satisfied after 30 iterations.
----- createFluidSolver() ----- (Fluid-side solver setup)
   Initializing fluid molecule 'H2O'
     Initializing site 'O'
       Electron density: proportional to exp(-r/0.36935)*erfc((r-0.51523)/0.36823) with norm 6.826
       Charge density: gaussian nuclear width 0.478731 with net site charge 0.826
       Polarizability: cuspless exponential with width 0.32 and norm 3.73
       Hard sphere radius: 2.57003 bohrs
       Positions in reference frame:
         [ +0.000000 +0.000000 +0.000000 ]
     Initializing site 'H'
       Electron density: proportional to exp(-r/0.34641)*erfc((r-0)/0.390882) with norm 0.587
       Charge density: gaussian nuclear width 0.377945 with net site charge -0.413
       Polarizability: cuspless exponential with width 0.39 and norm 3.3
       Positions in reference frame:
         [ +0.000000 -1.441945 +1.122523 ]
         [ +0.000000 +1.441945 +1.122523 ]
     Net charge: 0   dipole magnitude: 0.927204
     Initializing spherical shell mfKernel with radius 2.61727 Bohr
     deltaS corrections:
       site 'O': -7.54299
       site 'H': -6.83917
   Initializing fluid molecule 'Na+'
     Initializing site 'Na'
       Electron density: proportional to exp(-r/0.19682)*erfc((r-0.71491)/0.41314) with norm 8.1383
       Charge density: gaussian nuclear width 0.365347 with net site charge -1
       Hard sphere radius: 1.86327 bohrs
       Positions in reference frame:
         [ +0.000000 +0.000000 +0.000000 ]
     Net charge: -1   dipole magnitude: 0
     Initializing gaussian mfKernel with width: 1.55004 Bohr
     deltaS corrections:
       site 'Na': -22.3555
   Initializing fluid molecule 'F-'
     Initializing site 'F'
       Electron density: proportional to exp(-r/0.38886)*erfc((r-0)/0.438782) with norm 8
       Charge density: gaussian nuclear width 0.374796 with net site charge 1
       Hard sphere radius: 2.39995 bohrs
       Positions in reference frame:
         [ +0.000000 +0.000000 +0.000000 ]
     Net charge: 1   dipole magnitude: 0
     Initializing gaussian mfKernel with width: 1.59012 Bohr
     deltaS corrections:
       site 'F': -9.04335

Correction to mu due to finite nuclear width = -0.0591895
   Cavity determined by nc: 0.00142 and sigma: 0.707107
   Nonlocal vdW cavity from gaussian model electron density with norm = 8 and sigma = 0.993594 bohr
   Charge asymmetry in cavity with sensitivity pCavity = 36.5 e-bohr/Eh
   Electrostatic cavity expanded by eta = 1.46 bohrs
   Weighted density cavitation model constrained by Nbulk: 0.0049383 bohr^-3, Pvap: 3.14029 kPa, Rvdw: 2.61727 bohr and sigmaBulk: 4.62e-05 Eh/bohr^2 at T: 298 K.
   Weighted density dispersion model using vdW pair potentials with single solvent site with sqrtC6eff: 0.77 SI.


---- Citations for features of the code used in this run ----

   Software package:
      R. Sundararaman, K. Letchworth-Weaver, K.A. Schwarz, D. Gunceler, Y. Ozhabes and T.A. Arias, 'JDFTx: software for joint density-functional theory', SoftwareX 6, 278 (2017)

   gga-PBE exchange-correlation functional:
      J.P. Perdew, K. Burke and M. Ernzerhof, Phys. Rev. Lett. 77, 3865 (1996)

   Pseudopotentials:
      KF Garrity, JW Bennett, KM Rabe and D Vanderbilt, Comput. Mater. Sci. 81, 446 (2014)

   DFT-D3 dispersion correction:
      S. Grimme, J. Antony, S. Ehrlich and H. Krieg, J. Chem. Phys. 132, 154104 (2010)

   DFT-D2 dispersion correction:
      S. Grimme, J. Comput. Chem. 27, 1787 (2006)

   Charge-asymmetric nonlocally-determined local-electric (CANDLE) solvation model:
      R. Sundararaman and W.A. Goddard III, J. Chem. Phys. 142, 064107 (2015)

   Total energy minimization with Auxiliary Hamiltonian:
      C. Freysoldt, S. Boeck, and J. Neugebauer, Phys. Rev. B 79, 241103(R) (2009)

   Grand-canonical (fixed-potential) DFT:
      R. Sundararaman, W. A. Goddard III and T. A. Arias, J. Chem. Phys. 146, 114104 (2017)

   Smooth electrostatic potentials by atom-potential subtraction:
      R. Sundararaman and Y. Ping, J. Chem. Phys. 146, 104109 (2017)

This list may not be complete. Please suggest additional citations or
report any other bugs at https://github.com/shankar1729/jdftx/issues

Initialization completed successfully at t[s]:    110.55


Computing DFT-D3 correction:
# coordination-number Cu 9.015 9.070 9.066 9.066 9.138 6.194 6.194 6.194 6.194 6.193 9.070 9.070 9.070 9.234 9.234 9.235 9.235 9.234 6.194 9.234 6.193 9.235 9.235 6.194 8.853 8.853 8.955 8.955 5.993 5.964 6.170 6.170 7.136 8.853 8.853 8.955 8.955 5.964 5.964 5.963
# coordination-number H 0.961
# diagonal-C6 Cu 175.00 175.00 175.00 175.00 175.00 175.00 175.00 175.00 175.00 175.00 175.00 175.00 175.00 175.00 175.00 175.00 175.00 175.00 175.00 175.00 175.00 175.00 175.00 175.00 175.00 175.00 175.00 175.00 175.00 175.00 175.00 175.00 175.00 175.00 175.00 175.00 175.00 175.00 175.00 175.00
# diagonal-C6 H 3.11
EvdW_6 =   -0.220789
EvdW_8 =   -0.341399
Fluid solver invoked on fresh (random / LCAO) wavefunctions
Running a vacuum solve first:

-------- Initial electronic minimization -----------
	FillingsUpdate:  mu: +0.052415247  nElectrons: 761.000000  magneticMoment: [ Abs: 0.00296  Tot: -0.00008 ]
ElecMinimize: Iter:   0  G: -7938.187118395341713  |grad|_K:  1.847e-04  alpha:  1.000e+00
	FillingsUpdate:  mu: -0.068243161  nElectrons: 761.000000  magneticMoment: [ Abs: 0.00315  Tot: -0.00007 ]
	SubspaceRotationAdjust: set factor to 0.948
ElecMinimize: Iter:   1  G: -7940.798840950922568  |grad|_K:  9.347e-05  alpha:  1.002e-01  linmin:  1.401e-04  t[s]:    116.84
ElecMinimize: 	Predicted alpha/alphaT>3.000000, increasing alphaT to 3.005331e-01.
	FillingsUpdate:  mu: +0.232466429  nElectrons: 761.000000  magneticMoment: [ Abs: 0.00380  Tot: -0.00000 ]
	SubspaceRotationAdjust: set factor to 0.752
ElecMinimize: Iter:   2  G: -7943.234910362367373  |grad|_K:  9.884e-05  alpha:  3.609e-01  linmin: -3.939e-05  t[s]:    121.34
	FillingsUpdate:  mu: +0.329372989  nElectrons: 761.000000  magneticMoment: [ Abs: 0.00361  Tot: +0.00000 ]
	SubspaceRotationAdjust: set factor to 0.429
ElecMinimize: Iter:   3  G: -7943.493881220541880  |grad|_K:  1.249e-04  alpha:  7.407e-02  linmin:  3.684e-04  t[s]:    124.93
	FillingsUpdate:  mu: +0.243199336  nElectrons: 761.000000  magneticMoment: [ Abs: 0.00367  Tot: +0.00001 ]
	SubspaceRotationAdjust: set factor to 0.311
ElecMinimize: Iter:   4  G: -7943.788118536766888  |grad|_K:  8.333e-05  alpha:  5.157e-02  linmin: -2.119e-10  t[s]:    128.51
	FillingsUpdate:  mu: +0.028742711  nElectrons: 761.000000  magneticMoment: [ Abs: 0.00346  Tot: +0.00002 ]
	SubspaceRotationAdjust: set factor to 0.277
ElecMinimize: Iter:   5  G: -7944.115165020719360  |grad|_K:  3.994e-05  alpha:  5.904e-02  linmin:  4.711e-06  t[s]:    132.10
	FillingsUpdate:  mu: +0.097364195  nElectrons: 761.000000  magneticMoment: [ Abs: 0.00270  Tot: +0.00002 ]
	SubspaceRotationAdjust: set factor to 0.258
ElecMinimize: Iter:   6  G: -7944.221695467766040  |grad|_K:  2.719e-05  alpha:  8.393e-02  linmin: -1.739e-05  t[s]:    135.74
	FillingsUpdate:  mu: +0.047311834  nElectrons: 761.000000  magneticMoment: [ Abs: 0.00238  Tot: +0.00003 ]
	SubspaceRotationAdjust: set factor to 0.289
ElecMinimize: Iter:   7  G: -7944.296520936891284  |grad|_K:  2.394e-05  alpha:  1.275e-01  linmin:  3.887e-05  t[s]:    139.34
	FillingsUpdate:  mu: +0.059223214  nElectrons: 761.000000  magneticMoment: [ Abs: 0.00251  Tot: +0.00003 ]
	SubspaceRotationAdjust: set factor to 0.296
ElecMinimize: Iter:   8  G: -7944.333331536882724  |grad|_K:  1.679e-05  alpha:  8.529e-02  linmin:  7.847e-06  t[s]:    142.91
	FillingsUpdate:  mu: +0.051089459  nElectrons: 761.000000  magneticMoment: [ Abs: 0.00258  Tot: +0.00003 ]
	SubspaceRotationAdjust: set factor to 0.408
ElecMinimize: Iter:   9  G: -7944.351324243093586  |grad|_K:  1.320e-05  alpha:  8.039e-02  linmin: -6.205e-07  t[s]:    146.54
	FillingsUpdate:  mu: +0.040542063  nElectrons: 761.000000  magneticMoment: [ Abs: 0.00247  Tot: +0.00003 ]
	SubspaceRotationAdjust: set factor to 0.406
ElecMinimize: Iter:  10  G: -7944.367361087025529  |grad|_K:  1.406e-05  alpha:  1.148e-01  linmin: -1.094e-05  t[s]:    150.16
	FillingsUpdate:  mu: +0.022037738  nElectrons: 761.000000  magneticMoment: [ Abs: 0.00210  Tot: +0.00003 ]
	SubspaceRotationAdjust: set factor to 0.578
ElecMinimize: Iter:  11  G: -7944.382408425924950  |grad|_K:  1.074e-05  alpha:  9.463e-02  linmin:  4.667e-06  t[s]:    153.75
	FillingsUpdate:  mu: +0.015771899  nElectrons: 761.000000  magneticMoment: [ Abs: 0.00178  Tot: +0.00003 ]
	SubspaceRotationAdjust: set factor to 0.565
ElecMinimize: Iter:  12  G: -7944.389664277304291  |grad|_K:  9.260e-06  alpha:  7.851e-02  linmin:  1.621e-05  t[s]:    157.34
	FillingsUpdate:  mu: +0.015392391  nElectrons: 761.000000  magneticMoment: [ Abs: 0.00153  Tot: +0.00003 ]
	SubspaceRotationAdjust: set factor to 0.756
ElecMinimize: Iter:  13  G: -7944.395825638323913  |grad|_K:  7.835e-06  alpha:  9.078e-02  linmin:  4.987e-06  t[s]:    160.91
	FillingsUpdate:  mu: +0.019952402  nElectrons: 761.000000  magneticMoment: [ Abs: 0.00137  Tot: +0.00002 ]
	SubspaceRotationAdjust: set factor to 0.705
ElecMinimize: Iter:  14  G: -7944.400198651350365  |grad|_K:  7.821e-06  alpha:  8.953e-02  linmin: -8.722e-06  t[s]:    164.48
	FillingsUpdate:  mu: +0.022577889  nElectrons: 761.000000  magneticMoment: [ Abs: 0.00121  Tot: +0.00002 ]
	SubspaceRotationAdjust: set factor to 0.783
ElecMinimize: Iter:  15  G: -7944.403623580172280  |grad|_K:  5.369e-06  alpha:  6.969e-02  linmin:  4.379e-08  t[s]:    168.07
	FillingsUpdate:  mu: +0.018160846  nElectrons: 761.000000  magneticMoment: [ Abs: 0.00097  Tot: +0.00002 ]
	SubspaceRotationAdjust: set factor to 0.845
ElecMinimize: Iter:  16  G: -7944.406201678484649  |grad|_K:  5.511e-06  alpha:  1.121e-01  linmin:  4.191e-06  t[s]:    171.67
	FillingsUpdate:  mu: +0.015515079  nElectrons: 761.000000  magneticMoment: [ Abs: 0.00074  Tot: +0.00001 ]
	SubspaceRotationAdjust: set factor to 0.67
ElecMinimize: Iter:  17  G: -7944.407809683288178  |grad|_K:  4.563e-06  alpha:  6.649e-02  linmin:  4.430e-07  t[s]:    175.26
	FillingsUpdate:  mu: +0.016726712  nElectrons: 761.000000  magneticMoment: [ Abs: 0.00054  Tot: +0.00001 ]
	SubspaceRotationAdjust: set factor to 0.764
ElecMinimize: Iter:  18  G: -7944.409069554248163  |grad|_K:  3.098e-06  alpha:  7.579e-02  linmin:  1.986e-06  t[s]:    178.85
	FillingsUpdate:  mu: +0.018279397  nElectrons: 761.000000  magneticMoment: [ Abs: 0.00040  Tot: +0.00001 ]
	SubspaceRotationAdjust: set factor to 0.753
ElecMinimize: Iter:  19  G: -7944.409903518140709  |grad|_K:  3.244e-06  alpha:  1.088e-01  linmin: -3.654e-06  t[s]:    182.45
	FillingsUpdate:  mu: +0.020107513  nElectrons: 761.000000  magneticMoment: [ Abs: 0.00030  Tot: +0.00001 ]
	SubspaceRotationAdjust: set factor to 0.628
ElecMinimize: Iter:  20  G: -7944.410544693770134  |grad|_K:  2.632e-06  alpha:  7.632e-02  linmin: -5.756e-07  t[s]:    186.02
	FillingsUpdate:  mu: +0.020095132  nElectrons: 761.000000  magneticMoment: [ Abs: 0.00021  Tot: +0.00001 ]
	SubspaceRotationAdjust: set factor to 0.767
ElecMinimize: Iter:  21  G: -7944.411009251228279  |grad|_K:  1.740e-06  alpha:  8.390e-02  linmin:  5.337e-07  t[s]:    189.60
	FillingsUpdate:  mu: +0.018984996  nElectrons: 761.000000  magneticMoment: [ Abs: 0.00017  Tot: +0.00001 ]
	SubspaceRotationAdjust: set factor to 0.756
ElecMinimize: Iter:  22  G: -7944.411239816389752  |grad|_K:  1.584e-06  alpha:  9.537e-02  linmin:  2.448e-06  t[s]:    193.18
	FillingsUpdate:  mu: +0.018362170  nElectrons: 761.000000  magneticMoment: [ Abs: 0.00015  Tot: +0.00000 ]
	SubspaceRotationAdjust: set factor to 0.673
ElecMinimize: Iter:  23  G: -7944.411405846975867  |grad|_K:  1.377e-06  alpha:  8.289e-02  linmin:  9.423e-07  t[s]:    196.75
	FillingsUpdate:  mu: +0.018293910  nElectrons: 761.000000  magneticMoment: [ Abs: 0.00013  Tot: +0.00000 ]
	SubspaceRotationAdjust: set factor to 0.758
ElecMinimize: Iter:  24  G: -7944.411554000352226  |grad|_K:  1.045e-06  alpha:  9.785e-02  linmin:  1.651e-07  t[s]:    200.34
	FillingsUpdate:  mu: +0.019151918  nElectrons: 761.000000  magneticMoment: [ Abs: 0.00012  Tot: +0.00000 ]
	SubspaceRotationAdjust: set factor to 0.859
ElecMinimize: Iter:  25  G: -7944.411633966907175  |grad|_K:  8.022e-07  alpha:  9.169e-02  linmin:  2.180e-07  t[s]:    203.94
	FillingsUpdate:  mu: +0.019997513  nElectrons: 761.000000  magneticMoment: [ Abs: 0.00011  Tot: +0.00000 ]
	SubspaceRotationAdjust: set factor to 0.714
ElecMinimize: Iter:  26  G: -7944.411673476527540  |grad|_K:  7.358e-07  alpha:  7.689e-02  linmin: -3.251e-07  t[s]:    207.52
	FillingsUpdate:  mu: +0.020132166  nElectrons: 761.000000  magneticMoment: [ Abs: 0.00010  Tot: +0.00000 ]
	SubspaceRotationAdjust: set factor to 0.78
ElecMinimize: Iter:  27  G: -7944.411720940312989  |grad|_K:  6.946e-07  alpha:  1.098e-01  linmin:  6.647e-07  t[s]:    211.09
	FillingsUpdate:  mu: +0.019509463  nElectrons: 761.000000  magneticMoment: [ Abs: 0.00008  Tot: +0.00000 ]
	SubspaceRotationAdjust: set factor to 0.861
ElecMinimize: Iter:  28  G: -7944.411761328276043  |grad|_K:  4.991e-07  alpha:  1.049e-01  linmin:  3.565e-07  t[s]:    214.66
	FillingsUpdate:  mu: +0.019311962  nElectrons: 761.000000  magneticMoment: [ Abs: 0.00008  Tot: +0.00000 ]
	SubspaceRotationAdjust: set factor to 0.826
ElecMinimize: Iter:  29  G: -7944.411779123945053  |grad|_K:  4.192e-07  alpha:  8.948e-02  linmin:  2.174e-07  t[s]:    218.27
	FillingsUpdate:  mu: +0.019407780  nElectrons: 761.000000  magneticMoment: [ Abs: 0.00007  Tot: +0.00000 ]
	SubspaceRotationAdjust: set factor to 0.744
ElecMinimize: Iter:  30  G: -7944.411790009408833  |grad|_K:  3.763e-07  alpha:  7.758e-02  linmin:  2.174e-07  t[s]:    221.89
	FillingsUpdate:  mu: +0.019749456  nElectrons: 761.000000  magneticMoment: [ Abs: 0.00006  Tot: +0.00000 ]
	SubspaceRotationAdjust: set factor to 0.668
ElecMinimize: Iter:  31  G: -7944.411800962635425  |grad|_K:  3.160e-07  alpha:  9.690e-02  linmin:  3.405e-07  t[s]:    225.46
	FillingsUpdate:  mu: +0.019698459  nElectrons: 761.000000  magneticMoment: [ Abs: 0.00004  Tot: +0.00000 ]
	SubspaceRotationAdjust: set factor to 0.777
ElecMinimize: Iter:  32  G: -7944.411809144909967  |grad|_K:  2.397e-07  alpha:  1.026e-01  linmin:  1.952e-07  t[s]:    229.02
	FillingsUpdate:  mu: +0.019501949  nElectrons: 761.000000  magneticMoment: [ Abs: 0.00004  Tot: -0.00000 ]
	SubspaceRotationAdjust: set factor to 0.683
ElecMinimize: Iter:  33  G: -7944.411813545904806  |grad|_K:  2.182e-07  alpha:  9.593e-02  linmin:  1.446e-07  t[s]:    232.59
	FillingsUpdate:  mu: +0.019441785  nElectrons: 761.000000  magneticMoment: [ Abs: 0.00003  Tot: -0.00000 ]
	SubspaceRotationAdjust: set factor to 0.564
ElecMinimize: Iter:  34  G: -7944.411816864102548  |grad|_K:  1.768e-07  alpha:  8.730e-02  linmin:  7.151e-08  t[s]:    236.17
	FillingsUpdate:  mu: +0.019435630  nElectrons: 761.000000  magneticMoment: [ Abs: 0.00003  Tot: -0.00000 ]
	SubspaceRotationAdjust: set factor to 0.6
ElecMinimize: Iter:  35  G: -7944.411819181893406  |grad|_K:  1.288e-07  alpha:  9.285e-02  linmin:  7.124e-08  t[s]:    239.76
	FillingsUpdate:  mu: +0.019462061  nElectrons: 761.000000  magneticMoment: [ Abs: 0.00002  Tot: -0.00000 ]
	SubspaceRotationAdjust: set factor to 0.604
ElecMinimize: Iter:  36  G: -7944.411820687854743  |grad|_K:  1.167e-07  alpha:  1.138e-01  linmin:  5.809e-08  t[s]:    243.34
	FillingsUpdate:  mu: +0.019527748  nElectrons: 761.000000  magneticMoment: [ Abs: 0.00002  Tot: -0.00000 ]
	SubspaceRotationAdjust: set factor to 0.555
ElecMinimize: Iter:  37  G: -7944.411821770810093  |grad|_K:  9.732e-08  alpha:  9.962e-02  linmin:  6.921e-08  t[s]:    246.90
	FillingsUpdate:  mu: +0.019540664  nElectrons: 761.000000  magneticMoment: [ Abs: 0.00002  Tot: -0.00000 ]
	SubspaceRotationAdjust: set factor to 0.59
ElecMinimize: Iter:  38  G: -7944.411822518305598  |grad|_K:  7.511e-08  alpha:  9.883e-02  linmin:  5.165e-08  t[s]:    250.51
	FillingsUpdate:  mu: +0.019488690  nElectrons: 761.000000  magneticMoment: [ Abs: 0.00001  Tot: -0.00000 ]
	SubspaceRotationAdjust: set factor to 0.634
ElecMinimize: Iter:  39  G: -7944.411823031798122  |grad|_K:  6.765e-08  alpha:  1.140e-01  linmin:  7.130e-08  t[s]:    254.09
	FillingsUpdate:  mu: +0.019435732  nElectrons: 761.000000  magneticMoment: [ Abs: 0.00001  Tot: -0.00000 ]
	SubspaceRotationAdjust: set factor to 0.605
ElecMinimize: Iter:  40  G: -7944.411823418628046  |grad|_K:  6.168e-08  alpha:  1.059e-01  linmin:  7.716e-08  t[s]:    257.68
	FillingsUpdate:  mu: +0.019427434  nElectrons: 761.000000  magneticMoment: [ Abs: 0.00001  Tot: -0.00000 ]
	SubspaceRotationAdjust: set factor to 0.661
ElecMinimize: Iter:  41  G: -7944.411823735218604  |grad|_K:  4.938e-08  alpha:  1.042e-01  linmin:  8.508e-08  t[s]:    261.27
	FillingsUpdate:  mu: +0.019483519  nElectrons: 761.000000  magneticMoment: [ Abs: 0.00001  Tot: -0.00000 ]
	SubspaceRotationAdjust: set factor to 0.71
ElecMinimize: Iter:  42  G: -7944.411823947311859  |grad|_K:  4.195e-08  alpha:  1.090e-01  linmin:  1.096e-07  t[s]:    264.84
	FillingsUpdate:  mu: +0.019514724  nElectrons: 761.000000  magneticMoment: [ Abs: 0.00001  Tot: -0.00000 ]
	SubspaceRotationAdjust: set factor to 0.671
ElecMinimize: Iter:  43  G: -7944.411824102168794  |grad|_K:  4.219e-08  alpha:  1.102e-01  linmin:  6.574e-08  t[s]:    268.43
	FillingsUpdate:  mu: +0.019479682  nElectrons: 761.000000  magneticMoment: [ Abs: 0.00001  Tot: +0.00000 ]
	SubspaceRotationAdjust: set factor to 0.65
ElecMinimize: Iter:  44  G: -7944.411824240899477  |grad|_K:  3.489e-08  alpha:  9.761e-02  linmin:  4.713e-08  t[s]:    272.01
	FillingsUpdate:  mu: +0.019446569  nElectrons: 761.000000  magneticMoment: [ Abs: 0.00001  Tot: +0.00000 ]
	SubspaceRotationAdjust: set factor to 0.648
ElecMinimize: Iter:  45  G: -7944.411824337654252  |grad|_K:  2.637e-08  alpha:  9.951e-02  linmin:  2.684e-08  t[s]:    275.59
	FillingsUpdate:  mu: +0.019456629  nElectrons: 761.000000  magneticMoment: [ Abs: 0.00000  Tot: +0.00000 ]
	SubspaceRotationAdjust: set factor to 0.676
ElecMinimize: Iter:  46  G: -7944.411824398813224  |grad|_K:  2.405e-08  alpha:  1.100e-01  linmin: -1.024e-07  t[s]:    279.17
ElecMinimize: Converged (|Delta G|<1.000000e-07 for 2 iters).
Setting wave functions to eigenvectors of Hamiltonian
Converging empty states (this may take a while): |deigs|: 2.144e-02
Vacuum energy after initial minimize, F = -7944.411824398813224

Shifting auxilliary hamiltonian by -0.190457 to set nElectrons=761.000000

-------- Electronic minimization -----------
	Linear fluid (dielectric constant: 78.4, screening length: 8.12261 Bohr) occupying 0.638863 of unit cell:	Completed after 24 iterations at t[s]:    298.76
	FillingsUpdate:  mu: -0.171000000  nElectrons: 761.000000  magneticMoment: [ Abs: 0.00000  Tot: -0.00000 ]
ElecMinimize: Iter:   0  G: -7944.412586981132335  |grad|_K:  3.300e-06  alpha:  1.000e+00
	Linear fluid (dielectric constant: 78.4, screening length: 8.12261 Bohr) occupying 0.640426 of unit cell:	Completed after 21 iterations at t[s]:    301.62
	Linear fluid (dielectric constant: 78.4, screening length: 8.12261 Bohr) occupying 0.638884 of unit cell:	Completed after 21 iterations at t[s]:    302.57
	FillingsUpdate:  mu: -0.171000000  nElectrons: 760.961375  magneticMoment: [ Abs: 0.00000  Tot: -0.00000 ]
	SubspaceRotationAdjust: set factor to 0.383
ElecMinimize: Iter:   1  G: -7944.412777840202580  |grad|_K:  1.369e-06  alpha:  1.912e-02  linmin: -1.856e-03  t[s]:    304.19
	Linear fluid (dielectric constant: 78.4, screening length: 8.12261 Bohr) occupying 0.638928 of unit cell:	Completed after 9 iterations at t[s]:    305.23
ElecMinimize: 	Predicted alpha/alphaT>3.000000, increasing alphaT to 5.735831e-02.
	Linear fluid (dielectric constant: 78.4, screening length: 8.12261 Bohr) occupying 0.639016 of unit cell:	Completed after 11 iterations at t[s]:    306.17
	Linear fluid (dielectric constant: 78.4, screening length: 8.12261 Bohr) occupying 0.639177 of unit cell:	Completed after 14 iterations at t[s]:    307.12
	FillingsUpdate:  mu: -0.171000000  nElectrons: 760.894689  magneticMoment: [ Abs: 0.00000  Tot: -0.00000 ]
	SubspaceRotationAdjust: set factor to 0.204
ElecMinimize: Iter:   2  G: -7944.412997254367838  |grad|_K:  2.238e-06  alpha:  1.270e-01  linmin: -2.208e-05  t[s]:    308.76
	Linear fluid (dielectric constant: 78.4, screening length: 8.12261 Bohr) occupying 0.640111 of unit cell:	Completed after 18 iterations at t[s]:    309.81
	Linear fluid (dielectric constant: 78.4, screening length: 8.12261 Bohr) occupying 0.639661 of unit cell:	Completed after 16 iterations at t[s]:    310.76
	FillingsUpdate:  mu: -0.171000000  nElectrons: 760.860954  magneticMoment: [ Abs: 0.00000  Tot: -0.00000 ]
	SubspaceRotationAdjust: set factor to 0.245
ElecMinimize: Iter:   3  G: -7944.413261146235527  |grad|_K:  1.234e-06  alpha:  6.514e-02  linmin:  1.716e-07  t[s]:    312.39
	Linear fluid (dielectric constant: 78.4, screening length: 8.12261 Bohr) occupying 0.639844 of unit cell:	Completed after 11 iterations at t[s]:    313.44
	Linear fluid (dielectric constant: 78.4, screening length: 8.12261 Bohr) occupying 0.639958 of unit cell:	Completed after 10 iterations at t[s]:    314.39
	FillingsUpdate:  mu: -0.171000000  nElectrons: 760.860013  magneticMoment: [ Abs: 0.00000  Tot: -0.00000 ]
	SubspaceRotationAdjust: set factor to 0.168
ElecMinimize: Iter:   4  G: -7944.413389314034248  |grad|_K:  1.244e-06  alpha:  1.058e-01  linmin:  6.569e-06  t[s]:    315.83
	Linear fluid (dielectric constant: 78.4, screening length: 8.12261 Bohr) occupying 0.640310 of unit cell:	Completed after 14 iterations at t[s]:    316.87
	Linear fluid (dielectric constant: 78.4, screening length: 8.12261 Bohr) occupying 0.640388 of unit cell:	Completed after 8 iterations at t[s]:    317.81
	FillingsUpdate:  mu: -0.171000000  nElectrons: 760.828485  magneticMoment: [ Abs: 0.00000  Tot: -0.00000 ]
	SubspaceRotationAdjust: set factor to 0.21
ElecMinimize: Iter:   5  G: -7944.413548133503355  |grad|_K:  1.378e-06  alpha:  1.292e-01  linmin: -1.124e-06  t[s]:    319.25
	Linear fluid (dielectric constant: 78.4, screening length: 8.12261 Bohr) occupying 0.640955 of unit cell:	Completed after 17 iterations at t[s]:    320.31
	Linear fluid (dielectric constant: 78.4, screening length: 8.12261 Bohr) occupying 0.640973 of unit cell:	Completed after 2 iterations at t[s]:    321.24
	FillingsUpdate:  mu: -0.171000000  nElectrons: 760.788546  magneticMoment: [ Abs: 0.00000  Tot: -0.00000 ]
	SubspaceRotationAdjust: set factor to 0.215
ElecMinimize: Iter:   6  G: -7944.413751063165364  |grad|_K:  1.097e-06  alpha:  1.334e-01  linmin: -1.253e-06  t[s]:    322.87
	Linear fluid (dielectric constant: 78.4, screening length: 8.12261 Bohr) occupying 0.641383 of unit cell:	Completed after 13 iterations at t[s]:    323.92
	Linear fluid (dielectric constant: 78.4, screening length: 8.12261 Bohr) occupying 0.641249 of unit cell:	Completed after 10 iterations at t[s]:    324.86
	FillingsUpdate:  mu: -0.171000000  nElectrons: 760.792548  magneticMoment: [ Abs: 0.00000  Tot: -0.00000 ]
	SubspaceRotationAdjust: set factor to 0.251
ElecMinimize: Iter:   7  G: -7944.413837524423798  |grad|_K:  9.303e-07  alpha:  8.945e-02  linmin:  7.142e-07  t[s]:    326.56
	Linear fluid (dielectric constant: 78.4, screening length: 8.12261 Bohr) occupying 0.641467 of unit cell:	Completed after 10 iterations at t[s]:    327.60
	Linear fluid (dielectric constant: 78.4, screening length: 8.12261 Bohr) occupying 0.641668 of unit cell:	Completed after 10 iterations at t[s]:    328.54
	FillingsUpdate:  mu: -0.171000000  nElectrons: 760.794708  magneticMoment: [ Abs: 0.00000  Tot: -0.00000 ]
	SubspaceRotationAdjust: set factor to 0.236
ElecMinimize: Iter:   8  G: -7944.413956453596256  |grad|_K:  9.514e-07  alpha:  1.724e-01  linmin:  2.289e-07  t[s]:    330.21
	Linear fluid (dielectric constant: 78.4, screening length: 8.12261 Bohr) occupying 0.642119 of unit cell:	Completed after 15 iterations at t[s]:    331.26
	Linear fluid (dielectric constant: 78.4, screening length: 8.12261 Bohr) occupying 0.641843 of unit cell:	Completed after 13 iterations at t[s]:    332.21
	FillingsUpdate:  mu: -0.171000000  nElectrons: 760.780812  magneticMoment: [ Abs: 0.00000  Tot: -0.00000 ]
	SubspaceRotationAdjust: set factor to 0.218
ElecMinimize: Iter:   9  G: -7944.414004513142572  |grad|_K:  5.986e-07  alpha:  6.662e-02  linmin:  1.847e-06  t[s]:    333.84
	Linear fluid (dielectric constant: 78.4, screening length: 8.12261 Bohr) occupying 0.641919 of unit cell:	Completed after 7 iterations at t[s]:    334.88
	Linear fluid (dielectric constant: 78.4, screening length: 8.12261 Bohr) occupying 0.642017 of unit cell:	Completed after 9 iterations at t[s]:    335.83
	FillingsUpdate:  mu: -0.171000000  nElectrons: 760.774997  magneticMoment: [ Abs: 0.00000  Tot: -0.00000 ]
	SubspaceRotationAdjust: set factor to 0.253
ElecMinimize: Iter:  10  G: -7944.414048246730999  |grad|_K:  6.391e-07  alpha:  1.528e-01  linmin: -3.140e-06  t[s]:    337.45
	Linear fluid (dielectric constant: 78.4, screening length: 8.12261 Bohr) occupying 0.642226 of unit cell:	Completed after 10 iterations at t[s]:    338.50
	Linear fluid (dielectric constant: 78.4, screening length: 8.12261 Bohr) occupying 0.642143 of unit cell:	Completed after 10 iterations at t[s]:    339.44
	FillingsUpdate:  mu: -0.171000000  nElectrons: 760.782253  magneticMoment: [ Abs: 0.00000  Tot: -0.00000 ]
	SubspaceRotationAdjust: set factor to 0.235
ElecMinimize: Iter:  11  G: -7944.414078436465388  |grad|_K:  4.570e-07  alpha:  9.185e-02  linmin:  1.615e-06  t[s]:    341.07
	Linear fluid (dielectric constant: 78.4, screening length: 8.12261 Bohr) occupying 0.642210 of unit cell:	Completed after 7 iterations at t[s]:    342.11
	Linear fluid (dielectric constant: 78.4, screening length: 8.12261 Bohr) occupying 0.642231 of unit cell:	Completed after 2 iterations at t[s]:    343.04
	FillingsUpdate:  mu: -0.171000000  nElectrons: 760.781345  magneticMoment: [ Abs: 0.00000  Tot: -0.00000 ]
	SubspaceRotationAdjust: set factor to 0.305
ElecMinimize: Iter:  12  G: -7944.414098549510527  |grad|_K:  4.149e-07  alpha:  1.209e-01  linmin: -7.328e-07  t[s]:    344.66
	Linear fluid (dielectric constant: 78.4, screening length: 8.12261 Bohr) occupying 0.642305 of unit cell:	Completed after 10 iterations at t[s]:    345.70
	Linear fluid (dielectric constant: 78.4, screening length: 8.12261 Bohr) occupying 0.642316 of unit cell:	Completed after 7 iterations at t[s]:    346.64
	FillingsUpdate:  mu: -0.171000000  nElectrons: 760.772716  magneticMoment: [ Abs: 0.00000  Tot: -0.00000 ]
	SubspaceRotationAdjust: set factor to 0.274
ElecMinimize: Iter:  13  G: -7944.414117663232901  |grad|_K:  4.328e-07  alpha:  1.392e-01  linmin:  4.832e-06  t[s]:    348.26
	Linear fluid (dielectric constant: 78.4, screening length: 8.12261 Bohr) occupying 0.642411 of unit cell:	Completed after 10 iterations at t[s]:    349.30
	Linear fluid (dielectric constant: 78.4, screening length: 8.12261 Bohr) occupying 0.642375 of unit cell:	Completed after 7 iterations at t[s]:    350.24
	FillingsUpdate:  mu: -0.171000000  nElectrons: 760.774868  magneticMoment: [ Abs: 0.00000  Tot: -0.00000 ]
	SubspaceRotationAdjust: set factor to 0.261
ElecMinimize: Iter:  14  G: -7944.414130582633334  |grad|_K:  2.410e-07  alpha:  8.663e-02  linmin:  8.592e-06  t[s]:    351.89
	Linear fluid (dielectric constant: 78.4, screening length: 8.12261 Bohr) occupying 0.642392 of unit cell:	Completed after 3 iterations at t[s]:    352.93
	Linear fluid (dielectric constant: 78.4, screening length: 8.12261 Bohr) occupying 0.642404 of unit cell:	Completed after 2 iterations at t[s]:    353.86
	FillingsUpdate:  mu: -0.171000000  nElectrons: 760.774935  magneticMoment: [ Abs: 0.00000  Tot: -0.00000 ]
	SubspaceRotationAdjust: set factor to 0.305
ElecMinimize: Iter:  15  G: -7944.414137304202995  |grad|_K:  2.508e-07  alpha:  1.453e-01  linmin: -1.092e-05  t[s]:    355.51
	Linear fluid (dielectric constant: 78.4, screening length: 8.12261 Bohr) occupying 0.642430 of unit cell:	Completed after 9 iterations at t[s]:    356.56
	Linear fluid (dielectric constant: 78.4, screening length: 8.12261 Bohr) occupying 0.642436 of unit cell:	Completed after 2 iterations at t[s]:    357.51
	FillingsUpdate:  mu: -0.171000000  nElectrons: 760.772199  magneticMoment: [ Abs: 0.00000  Tot: +0.00000 ]
	SubspaceRotationAdjust: set factor to 0.287
ElecMinimize: Iter:  16  G: -7944.414146434010945  |grad|_K:  2.737e-07  alpha:  1.810e-01  linmin: -3.765e-05  t[s]:    359.14
	Linear fluid (dielectric constant: 78.4, screening length: 8.12261 Bohr) occupying 0.642472 of unit cell:	Completed after 10 iterations at t[s]:    360.19
	Linear fluid (dielectric constant: 78.4, screening length: 8.12261 Bohr) occupying 0.642454 of unit cell:	Completed after 9 iterations at t[s]:    361.13
	FillingsUpdate:  mu: -0.171000000  nElectrons: 760.776330  magneticMoment: [ Abs: 0.00000  Tot: +0.00000 ]
	SubspaceRotationAdjust: set factor to 0.244
ElecMinimize: Iter:  17  G: -7944.414151886003310  |grad|_K:  1.399e-07  alpha:  8.821e-02  linmin: -1.127e-07  t[s]:    362.76
	Linear fluid (dielectric constant: 78.4, screening length: 8.12261 Bohr) occupying 0.642456 of unit cell:	Completed after 1 iterations at t[s]:    363.79
	Linear fluid (dielectric constant: 78.4, screening length: 8.12261 Bohr) occupying 0.642457 of unit cell:	Completed after 2 iterations at t[s]:    364.72
	FillingsUpdate:  mu: -0.171000000  nElectrons: 760.776304  magneticMoment: [ Abs: 0.00000  Tot: +0.00000 ]
	SubspaceRotationAdjust: set factor to 0.272
ElecMinimize: Iter:  18  G: -7944.414154100194537  |grad|_K:  1.358e-07  alpha:  1.426e-01  linmin:  5.503e-06  t[s]:    366.35
	Linear fluid (dielectric constant: 78.4, screening length: 8.12261 Bohr) occupying 0.642455 of unit cell:	Completed after 6 iterations at t[s]:    367.43
	Linear fluid (dielectric constant: 78.4, screening length: 8.12261 Bohr) occupying 0.642455 of unit cell:	Completed after 1 iterations at t[s]:    368.36
	FillingsUpdate:  mu: -0.171000000  nElectrons: 760.775298  magneticMoment: [ Abs: 0.00000  Tot: +0.00000 ]
	SubspaceRotationAdjust: set factor to 0.271
ElecMinimize: Iter:  19  G: -7944.414156674178230  |grad|_K:  1.318e-07  alpha:  1.744e-01  linmin: -3.737e-05  t[s]:    369.98
	Linear fluid (dielectric constant: 78.4, screening length: 8.12261 Bohr) occupying 0.642449 of unit cell:	Completed after 9 iterations at t[s]:    371.02
	Linear fluid (dielectric constant: 78.4, screening length: 8.12261 Bohr) occupying 0.642451 of unit cell:	Completed after 7 iterations at t[s]:    371.96
	FillingsUpdate:  mu: -0.171000000  nElectrons: 760.777561  magneticMoment: [ Abs: 0.00000  Tot: +0.00000 ]
	SubspaceRotationAdjust: set factor to 0.227
ElecMinimize: Iter:  20  G: -7944.414158237467745  |grad|_K:  1.037e-07  alpha:  1.058e-01  linmin:  1.137e-05  t[s]:    373.59
	Linear fluid (dielectric constant: 78.4, screening length: 8.12261 Bohr) occupying 0.642447 of unit cell:	Completed after 2 iterations at t[s]:    374.63
	Linear fluid (dielectric constant: 78.4, screening length: 8.12261 Bohr) occupying 0.642445 of unit cell:	Completed after 2 iterations at t[s]:    375.55
	FillingsUpdate:  mu: -0.171000000  nElectrons: 760.777315  magneticMoment: [ Abs: 0.00000  Tot: +0.00000 ]
	SubspaceRotationAdjust: set factor to 0.268
ElecMinimize: Iter:  21  G: -7944.414159408313026  |grad|_K:  8.241e-08  alpha:  1.383e-01  linmin: -5.896e-06  t[s]:    377.18
	Linear fluid (dielectric constant: 78.4, screening length: 8.12261 Bohr) occupying 0.642439 of unit cell:	Completed after 6 iterations at t[s]:    378.22
	Linear fluid (dielectric constant: 78.4, screening length: 8.12261 Bohr) occupying 0.642440 of unit cell:	Completed after 0 iterations at t[s]:    379.14
	FillingsUpdate:  mu: -0.171000000  nElectrons: 760.776530  magneticMoment: [ Abs: 0.00000  Tot: +0.00000 ]
	SubspaceRotationAdjust: set factor to 0.235
ElecMinimize: Iter:  22  G: -7944.414159984316939  |grad|_K:  7.639e-08  alpha:  1.060e-01  linmin:  2.685e-05  t[s]:    380.77
	Linear fluid (dielectric constant: 78.4, screening length: 8.12261 Bohr) occupying 0.642434 of unit cell:	Completed after 7 iterations at t[s]:    381.81
	Linear fluid (dielectric constant: 78.4, screening length: 8.12261 Bohr) occupying 0.642436 of unit cell:	Completed after 2 iterations at t[s]:    382.73
	FillingsUpdate:  mu: -0.171000000  nElectrons: 760.777712  magneticMoment: [ Abs: 0.00000  Tot: +0.00000 ]
	SubspaceRotationAdjust: set factor to 0.183
ElecMinimize: Iter:  23  G: -7944.414160308237115  |grad|_K:  6.540e-08  alpha:  7.634e-02  linmin:  1.037e-06  t[s]:    384.40
	Linear fluid (dielectric constant: 78.4, screening length: 8.12261 Bohr) occupying 0.642432 of unit cell:	Completed after 0 iterations at t[s]:    385.43
	Linear fluid (dielectric constant: 78.4, screening length: 8.12261 Bohr) occupying 0.642425 of unit cell:	Completed after 2 iterations at t[s]:    386.37
	FillingsUpdate:  mu: -0.171000000  nElectrons: 760.778478  magneticMoment: [ Abs: 0.00000  Tot: +0.00000 ]
	SubspaceRotationAdjust: set factor to 0.22
ElecMinimize: Iter:  24  G: -7944.414160910994724  |grad|_K:  5.722e-08  alpha:  1.876e-01  linmin:  2.093e-05  t[s]:    388.01
	Linear fluid (dielectric constant: 78.4, screening length: 8.12261 Bohr) occupying 0.642415 of unit cell:	Completed after 4 iterations at t[s]:    389.05
	Linear fluid (dielectric constant: 78.4, screening length: 8.12261 Bohr) occupying 0.642420 of unit cell:	Completed after 2 iterations at t[s]:    389.97
	FillingsUpdate:  mu: -0.171000000  nElectrons: 760.778327  magneticMoment: [ Abs: 0.00000  Tot: +0.00000 ]
	SubspaceRotationAdjust: set factor to 0.204
ElecMinimize: Iter:  25  G: -7944.414161143655292  |grad|_K:  3.815e-08  alpha:  9.783e-02  linmin:  1.954e-05  t[s]:    391.62
	Linear fluid (dielectric constant: 78.4, screening length: 8.12261 Bohr) occupying 0.642417 of unit cell:	Completed after 1 iterations at t[s]:    392.65
	Linear fluid (dielectric constant: 78.4, screening length: 8.12261 Bohr) occupying 0.642415 of unit cell:	Completed after 1 iterations at t[s]:    393.58
	FillingsUpdate:  mu: -0.171000000  nElectrons: 760.778946  magneticMoment: [ Abs: 0.00000  Tot: +0.00000 ]
	SubspaceRotationAdjust: set factor to 0.22
ElecMinimize: Iter:  26  G: -7944.414161307988252  |grad|_K:  3.973e-08  alpha:  1.503e-01  linmin: -7.185e-06  t[s]:    395.20
	Linear fluid (dielectric constant: 78.4, screening length: 8.12261 Bohr) occupying 0.642409 of unit cell:	Completed after 2 iterations at t[s]:    396.23
	Linear fluid (dielectric constant: 78.4, screening length: 8.12261 Bohr) occupying 0.642410 of unit cell:	Completed after 0 iterations at t[s]:    397.16
	FillingsUpdate:  mu: -0.171000000  nElectrons: 760.779691  magneticMoment: [ Abs: 0.00000  Tot: +0.00000 ]
	SubspaceRotationAdjust: set factor to 0.22
ElecMinimize: Iter:  27  G: -7944.414161468162092  |grad|_K:  4.075e-08  alpha:  1.278e-01  linmin: -1.630e-05  t[s]:    398.80
	Linear fluid (dielectric constant: 78.4, screening length: 8.12261 Bohr) occupying 0.642404 of unit cell:	Completed after 2 iterations at t[s]:    399.83
	Linear fluid (dielectric constant: 78.4, screening length: 8.12261 Bohr) occupying 0.642406 of unit cell:	Completed after 0 iterations at t[s]:    400.75
	FillingsUpdate:  mu: -0.171000000  nElectrons: 760.779559  magneticMoment: [ Abs: 0.00000  Tot: +0.00000 ]
	SubspaceRotationAdjust: set factor to 0.261
ElecMinimize: Iter:  28  G: -7944.414161576210063  |grad|_K:  2.953e-08  alpha:  7.692e-02  linmin:  4.840e-05  t[s]:    402.39
	Linear fluid (dielectric constant: 78.4, screening length: 8.12261 Bohr) occupying 0.642404 of unit cell:	Completed after 1 iterations at t[s]:    403.42
	Linear fluid (dielectric constant: 78.4, screening length: 8.12261 Bohr) occupying 0.642402 of unit cell:	Completed after 0 iterations at t[s]:    404.35
	FillingsUpdate:  mu: -0.171000000  nElectrons: 760.779278  magneticMoment: [ Abs: 0.00000  Tot: +0.00000 ]
	SubspaceRotationAdjust: set factor to 0.298
ElecMinimize: Iter:  29  G: -7944.414161656945907  |grad|_K:  2.285e-08  alpha:  1.171e-01  linmin: -1.217e-04  t[s]:    405.97
	Linear fluid (dielectric constant: 78.4, screening length: 8.12261 Bohr) occupying 0.642399 of unit cell:	Completed after 2 iterations at t[s]:    407.00
	Linear fluid (dielectric constant: 78.4, screening length: 8.12261 Bohr) occupying 0.642400 of unit cell:	Completed after 0 iterations at t[s]:    407.93
	FillingsUpdate:  mu: -0.171000000  nElectrons: 760.779095  magneticMoment: [ Abs: 0.00000  Tot: +0.00000 ]
	SubspaceRotationAdjust: set factor to 0.301
ElecMinimize: Iter:  30  G: -7944.414161687580417  |grad|_K:  2.888e-08  alpha:  7.563e-02  linmin: -2.195e-05  t[s]:    409.58
ElecMinimize: Converged (|Delta G|<1.000000e-07 for 2 iters).
Setting wave functions to eigenvectors of Hamiltonian
Converging empty states (this may take a while): |deigs|: 1.261e-04
Single-point solvation energy estimate, DeltaG = -0.002337288767194

Computing DFT-D3 correction:
# coordination-number Cu 9.015 9.070 9.066 9.066 9.138 6.194 6.194 6.194 6.194 6.193 9.070 9.070 9.070 9.234 9.234 9.235 9.235 9.234 6.194 9.234 6.193 9.235 9.235 6.194 8.853 8.853 8.955 8.955 5.993 5.964 6.170 6.170 7.136 8.853 8.853 8.955 8.955 5.964 5.964 5.963
# coordination-number H 0.961
# diagonal-C6 Cu 175.00 175.00 175.00 175.00 175.00 175.00 175.00 175.00 175.00 175.00 175.00 175.00 175.00 175.00 175.00 175.00 175.00 175.00 175.00 175.00 175.00 175.00 175.00 175.00 175.00 175.00 175.00 175.00 175.00 175.00 175.00 175.00 175.00 175.00 175.00 175.00 175.00 175.00 175.00 175.00
# diagonal-C6 H 3.11
EvdW_6 =   -0.220789
EvdW_8 =   -0.341399

# Ionic positions in cartesian coordinates:
ion Cu  10.082944999999999  11.763477999999997  35.290269000000002 0
ion Cu   0.000002000000000   1.680461000000000  35.290272999999999 0
ion Cu   3.361029000000000  11.763476999999998  35.290270999999990 0
ion Cu  10.082947000000001   5.041434000000000  35.290273999999989 0
ion Cu   3.361028000000000   5.041435000000000  35.290273999999989 0
ion Cu  10.082947000000001  11.763474000000000  28.568402999999996 0
ion Cu   0.000003000000000   1.680462000000000  28.568401000000001 0
ion Cu   3.361026000000000  11.763474000000000  28.568401000000001 0
ion Cu  10.082948000000000   5.041435000000000  28.568400000000000 0
ion Cu   3.361028000000000   5.041434000000000  28.568401999999995 0
ion Cu   6.722004000000000   1.680460000000000  35.290269000000002 0
ion Cu   0.000002000000000   8.402479000000000  35.290273999999989 0
ion Cu   6.722003000000000   8.402479000000000  35.290274999999994 0
ion Cu  10.082943999999999   1.680460000000000  31.929362999999995 0
ion Cu  13.443941000000001  11.763474999999998  31.929361999999998 0
ion Cu   3.361032000000000   1.680461000000000  31.929361999999998 0
ion Cu   0.000002000000000   5.041435000000000  31.929360999999997 0
ion Cu   6.722004000000000  11.763479999999998  31.929361999999998 0
ion Cu   6.722003000000000   1.680463000000000  28.568403999999997 0
ion Cu  10.082948000000000   8.402480000000001  31.929359999999999 0
ion Cu   0.000001000000000   8.402480000000001  28.568404999999998 0
ion Cu   3.361028000000000   8.402479000000000  31.929360999999997 0
ion Cu   6.722003000000000   5.041429000000000  31.929360999999997 0
ion Cu   6.722003000000000   8.402477999999999  28.568400000000000 0
ion Cu  10.082835999999999   1.686534000000000  38.768338999999990 1
ion Cu   0.006100000000000  11.763269999999999  38.768398999999995 1
ion Cu   3.360977000000000   1.692452000000000  38.726826999999993 1
ion Cu   0.011986000000000   5.041391000000000  38.726743999999989 1
ion Cu  10.082841000000000  11.763276999999999  42.176583999999991 1
ion Cu   0.023029000000000   1.703500000000000  42.218551999999995 1
ion Cu   3.360941000000000  11.763403999999998  42.113669999999999 1
ion Cu  10.082862000000000   5.041326000000000  42.113645999999996 1
ion Cu   3.360906000000000   5.041175000000000  42.143426999999996 1
ion Cu   6.715754000000000  11.763280999999999  38.768456999999998 1
ion Cu  10.082846000000000   8.396195000000001  38.768507000000000 1
ion Cu   3.360986000000000   8.390309000000000  38.726798999999993 1
ion Cu   6.709836000000000   5.041401000000000  38.726875000000000 1
ion Cu   6.698703000000000   1.703538000000000  42.218812999999997 1
ion Cu   0.023245000000000   8.379009999999999  42.218753999999990 1
ion Cu   6.698551000000000   8.379035999999999  42.218986999999998 1
ion H   3.360561999999999   5.042373999999999  44.976779999999991 1

# Forces in Cartesian coordinates:
force Cu  -0.000001802442588  -0.000009009005582   0.005498199255658 0
force Cu  -0.001030175393864  -0.001031810937481   0.004510635025059 0
force Cu  -0.000005164281421  -0.000007239139843   0.003822460683071 0
force Cu  -0.000003178675970   0.000001291948936   0.003821732166897 0
force Cu  -0.000005517708462  -0.000001090935885   0.004220113051056 0
force Cu   0.000003782997395  -0.000000210210014   0.000335320804359 0
force Cu  -0.000234033127935  -0.000233644170117   0.000342642985482 0
force Cu   0.000000818793010  -0.000000420307581   0.000322884890135 0
force Cu   0.000003379434797   0.000004878215403   0.000323386771315 0
force Cu  -0.000000316797536   0.000003648595370  -0.000145467613807 0
force Cu   0.001022217449967  -0.001030879694173   0.004511938554536 0
force Cu  -0.001031996232290   0.001021800037546   0.004508946861990 0
force Cu   0.001024254082937   0.001021106927538   0.004509367752346 0
force Cu   0.000005893950315  -0.000489011410212  -0.003310373646450 0
force Cu  -0.000490436465368  -0.000001090501327  -0.003309864583624 0
force Cu  -0.000000939033903   0.000219610244117  -0.002983727876356 0
force Cu   0.000218625817766   0.000005257634612  -0.002983323427833 0
force Cu   0.000494307442957  -0.000002046049378  -0.003310339114340 0
force Cu   0.000237679139773  -0.000233749050622   0.000341060461563 0
force Cu   0.000004941964466   0.000494006359282  -0.003309664235412 0
force Cu  -0.000234185176787   0.000237071757685   0.000344263790841 0
force Cu  -0.000000078538222  -0.000217442863929  -0.002983259491817 0
force Cu  -0.000216595034896   0.000006224658627  -0.002983452009942 0
force Cu   0.000237887026014   0.000237145860016   0.000343654569809 0
force Cu  -0.000000449104486  -0.000556793129063   0.002118708437793 1
force Cu  -0.000555954809081  -0.000000698247127   0.002115842760207 1
force Cu  -0.000001122691115  -0.000520590141153   0.000266903430751 1
force Cu  -0.000519963817556   0.000000433553976   0.000269385185131 1
force Cu   0.000000060801035  -0.000004897688114  -0.003006423353766 1
force Cu  -0.000520831293760  -0.000520197200349  -0.003780328782475 1
force Cu  -0.000002047098144  -0.000002444940561  -0.001234723960795 1
force Cu   0.000000830058468   0.000001279844819  -0.001234073486014 1
force Cu  -0.000001353646972   0.000000334950727  -0.002396887913186 1
force Cu   0.000555621964057  -0.000000329483924   0.002116213017569 1
force Cu  -0.000000010984264   0.000554631047438   0.002113480610530 1
force Cu  -0.000001167954986   0.000520005863982   0.000270178969569 1
force Cu   0.000520783213841   0.000000316909527   0.000267703415630 1
force Cu   0.000519966865208  -0.000520687913009  -0.003781131698091 1
force Cu  -0.000521164512647   0.000519339448625  -0.003776093243609 1
force Cu   0.000519779459464   0.000519434428257  -0.003776718997280 1
force H  -0.000000164867701   0.000007456674138   0.000824847119303 1

# Energy components:
   A_diel =        0.0212114748062613
   Eewald =    64098.6927838485426037
       EH =    71406.0403997891553445
     Eloc =  -145095.1169220063602552
      Enl =     1464.9306849923909795
     EvdW =       -0.5621880620640816
      Exc =     -776.4243257675437917
 Exc_core =        1.8788706412828187
       KE =      826.0202876026164631
  MuShift =        0.0130752751599484
-------------------------------------
     Etot =    -8074.5061222120066304
       TS =        0.0012646867555246
-------------------------------------
        F =    -8074.5073868987619790
      muN =     -130.0932252111813909
-------------------------------------
        G =    -7944.4141616875804175

IonicMinimize: Iter:   0  G: -7944.414161687580417  |grad|_K:  1.388e-03  t[s]:    422.72

#--- Lowdin population analysis ---
# oxidation-state Cu +0.075 +0.076 +0.075 +0.075 +0.076 +0.151 +0.157 +0.156 +0.156 +0.165 +0.076 +0.076 +0.076 +0.038 +0.038 +0.036 +0.036 +0.038 +0.157 +0.038 +0.157 +0.036 +0.036 +0.157 +0.043 +0.043 +0.051 +0.051 +0.160 +0.184 +0.155 +0.155 -0.123 +0.043 +0.043 +0.051 +0.051 +0.184 +0.184 +0.184
# magnetic-moments Cu +0.000 -0.000 +0.000 +0.000 +0.000 +0.000 +0.000 +0.000 -0.000 -0.000 -0.000 -0.000 -0.000 -0.000 -0.000 +0.000 +0.000 -0.000 +0.000 -0.000 +0.000 +0.000 +0.000 +0.000 -0.000 +0.000 -0.000 +0.000 +0.000 +0.000 +0.000 +0.000 -0.000 +0.000 -0.000 -0.000 +0.000 +0.000 -0.000 +0.000
# oxidation-state H +0.042
# magnetic-moments H -0.000


Computing DFT-D3 correction:
# coordination-number Cu 9.012 9.068 9.064 9.064 9.137 6.194 6.194 6.194 6.194 6.193 9.068 9.067 9.067 9.234 9.234 9.235 9.235 9.234 6.194 9.233 6.193 9.235 9.235 6.194 8.860 8.860 8.959 8.959 6.007 5.975 6.175 6.175 7.138 8.860 8.860 8.959 8.959 5.974 5.974 5.974
# coordination-number H 0.960
# diagonal-C6 Cu 175.00 175.00 175.00 175.00 175.00 175.00 175.00 175.00 175.00 175.00 175.00 175.00 175.00 175.00 175.00 175.00 175.00 175.00 175.00 175.00 175.00 175.00 175.00 175.00 175.00 175.00 175.00 175.00 175.00 175.00 175.00 175.00 175.00 175.00 175.00 175.00 175.00 175.00 175.00 175.00
# diagonal-C6 H 3.11
EvdW_6 =   -0.220798
EvdW_8 =   -0.341435
Shifting auxilliary hamiltonian by 0.000059 to set nElectrons=760.779095

-------- Electronic minimization -----------
	Linear fluid (dielectric constant: 78.4, screening length: 8.12261 Bohr) occupying 0.642411 of unit cell:	Completed after 5 iterations at t[s]:    424.42
	FillingsUpdate:  mu: -0.171000000  nElectrons: 760.779095  magneticMoment: [ Abs: 0.00000  Tot: +0.00000 ]
ElecMinimize: Iter:   0  G: -7944.414240778289241  |grad|_K:  2.659e-07  alpha:  1.000e+00
	Linear fluid (dielectric constant: 78.4, screening length: 8.12261 Bohr) occupying 0.642406 of unit cell:	Completed after 12 iterations at t[s]:    427.26
	Linear fluid (dielectric constant: 78.4, screening length: 8.12261 Bohr) occupying 0.642411 of unit cell:	Completed after 13 iterations at t[s]:    428.23
	FillingsUpdate:  mu: -0.171000000  nElectrons: 760.776777  magneticMoment: [ Abs: 0.00000  Tot: +0.00000 ]
	SubspaceRotationAdjust: set factor to 0.27
ElecMinimize: Iter:   1  G: -7944.414247097676707  |grad|_K:  1.806e-07  alpha:  1.094e-01  linmin: -3.325e-04  t[s]:    429.86
	Linear fluid (dielectric constant: 78.4, screening length: 8.12261 Bohr) occupying 0.642411 of unit cell:	Completed after 8 iterations at t[s]:    430.90
	Linear fluid (dielectric constant: 78.4, screening length: 8.12261 Bohr) occupying 0.642411 of unit cell:	Completed after 7 iterations at t[s]:    431.83
	FillingsUpdate:  mu: -0.171000000  nElectrons: 760.781852  magneticMoment: [ Abs: 0.00000  Tot: +0.00000 ]
	SubspaceRotationAdjust: set factor to 0.198
ElecMinimize: Iter:   2  G: -7944.414251449785297  |grad|_K:  2.013e-07  alpha:  1.649e-01  linmin: -6.999e-05  t[s]:    433.46
	Linear fluid (dielectric constant: 78.4, screening length: 8.12261 Bohr) occupying 0.642409 of unit cell:	Completed after 10 iterations at t[s]:    434.50
	Linear fluid (dielectric constant: 78.4, screening length: 8.12261 Bohr) occupying 0.642409 of unit cell:	Completed after 7 iterations at t[s]:    435.43
	FillingsUpdate:  mu: -0.171000000  nElectrons: 760.780078  magneticMoment: [ Abs: 0.00000  Tot: +0.00000 ]
	SubspaceRotationAdjust: set factor to 0.153
ElecMinimize: Iter:   3  G: -7944.414254609838281  |grad|_K:  9.699e-08  alpha:  9.698e-02  linmin:  8.834e-05  t[s]:    437.05
	Linear fluid (dielectric constant: 78.4, screening length: 8.12261 Bohr) occupying 0.642409 of unit cell:	Completed after 2 iterations at t[s]:    438.09
	Linear fluid (dielectric constant: 78.4, screening length: 8.12261 Bohr) occupying 0.642409 of unit cell:	Completed after 2 iterations at t[s]:    439.01
	FillingsUpdate:  mu: -0.171000000  nElectrons: 760.780294  magneticMoment: [ Abs: 0.00000  Tot: +0.00000 ]
	SubspaceRotationAdjust: set factor to 0.177
ElecMinimize: Iter:   4  G: -7944.414255974632397  |grad|_K:  7.041e-08  alpha:  1.786e-01  linmin: -5.775e-04  t[s]:    440.64
	Linear fluid (dielectric constant: 78.4, screening length: 8.12261 Bohr) occupying 0.642408 of unit cell:	Completed after 3 iterations at t[s]:    441.68
	Linear fluid (dielectric constant: 78.4, screening length: 8.12261 Bohr) occupying 0.642408 of unit cell:	Completed after 0 iterations at t[s]:    442.60
	FillingsUpdate:  mu: -0.171000000  nElectrons: 760.780815  magneticMoment: [ Abs: 0.00000  Tot: +0.00000 ]
	SubspaceRotationAdjust: set factor to 0.188
ElecMinimize: Iter:   5  G: -7944.414256613988073  |grad|_K:  5.846e-08  alpha:  1.546e-01  linmin:  4.539e-04  t[s]:    444.21
	Linear fluid (dielectric constant: 78.4, screening length: 8.12261 Bohr) occupying 0.642408 of unit cell:	Completed after 2 iterations at t[s]:    445.25
	Linear fluid (dielectric constant: 78.4, screening length: 8.12261 Bohr) occupying 0.642408 of unit cell:	Completed after 2 iterations at t[s]:    446.18
	FillingsUpdate:  mu: -0.171000000  nElectrons: 760.780644  magneticMoment: [ Abs: 0.00000  Tot: +0.00000 ]
	SubspaceRotationAdjust: set factor to 0.212
ElecMinimize: Iter:   6  G: -7944.414257303244085  |grad|_K:  5.234e-08  alpha:  2.466e-01  linmin: -9.708e-04  t[s]:    447.82
	Linear fluid (dielectric constant: 78.4, screening length: 8.12261 Bohr) occupying 0.642407 of unit cell:	Completed after 2 iterations at t[s]:    448.85
	Linear fluid (dielectric constant: 78.4, screening length: 8.12261 Bohr) occupying 0.642407 of unit cell:	Completed after 2 iterations at t[s]:    449.80
	FillingsUpdate:  mu: -0.171000000  nElectrons: 760.779767  magneticMoment: [ Abs: 0.00000  Tot: +0.00000 ]
	SubspaceRotationAdjust: set factor to 0.227
ElecMinimize: Iter:   7  G: -7944.414257661163902  |grad|_K:  3.195e-08  alpha:  1.504e-01  linmin:  2.977e-04  t[s]:    451.44
	Linear fluid (dielectric constant: 78.4, screening length: 8.12261 Bohr) occupying 0.642407 of unit cell:	Completed after 2 iterations at t[s]:    452.47
	Linear fluid (dielectric constant: 78.4, screening length: 8.12261 Bohr) occupying 0.642406 of unit cell:	Completed after 0 iterations at t[s]:    453.39
	FillingsUpdate:  mu: -0.171000000  nElectrons: 760.780020  magneticMoment: [ Abs: 0.00000  Tot: +0.00000 ]
	SubspaceRotationAdjust: set factor to 0.284
ElecMinimize: Iter:   8  G: -7944.414257905657905  |grad|_K:  3.283e-08  alpha:  2.825e-01  linmin: -7.177e-04  t[s]:    455.03
	Linear fluid (dielectric constant: 78.4, screening length: 8.12261 Bohr) occupying 0.642404 of unit cell:	Completed after 3 iterations at t[s]:    456.06
	Linear fluid (dielectric constant: 78.4, screening length: 8.12261 Bohr) occupying 0.642405 of unit cell:	Completed after 2 iterations at t[s]:    456.99
	FillingsUpdate:  mu: -0.171000000  nElectrons: 760.780593  magneticMoment: [ Abs: 0.00000  Tot: +0.00000 ]
	SubspaceRotationAdjust: set factor to 0.278
ElecMinimize: Iter:   9  G: -7944.414258028783479  |grad|_K:  3.986e-08  alpha:  1.540e-01  linmin:  5.550e-06  t[s]:    458.63
	Linear fluid (dielectric constant: 78.4, screening length: 8.12261 Bohr) occupying 0.642403 of unit cell:	Completed after 2 iterations at t[s]:    459.67
	Linear fluid (dielectric constant: 78.4, screening length: 8.12261 Bohr) occupying 0.642404 of unit cell:	Completed after 2 iterations at t[s]:    460.60
	FillingsUpdate:  mu: -0.171000000  nElectrons: 760.780319  magneticMoment: [ Abs: 0.00000  Tot: +0.00000 ]
	SubspaceRotationAdjust: set factor to 0.337
ElecMinimize: Iter:  10  G: -7944.414258143785446  |grad|_K:  3.378e-08  alpha:  9.407e-02  linmin:  5.893e-05  t[s]:    462.24
	Linear fluid (dielectric constant: 78.4, screening length: 8.12261 Bohr) occupying 0.642403 of unit cell:	Completed after 0 iterations at t[s]:    463.27
	Linear fluid (dielectric constant: 78.4, screening length: 8.12261 Bohr) occupying 0.642403 of unit cell:	Completed after 2 iterations at t[s]:    464.19
	FillingsUpdate:  mu: -0.171000000  nElectrons: 760.779965  magneticMoment: [ Abs: 0.00000  Tot: +0.00000 ]
	SubspaceRotationAdjust: set factor to 0.362
ElecMinimize: Iter:  11  G: -7944.414258216553208  |grad|_K:  3.821e-08  alpha:  1.225e-01  linmin:  6.776e-04  t[s]:    465.90
	Linear fluid (dielectric constant: 78.4, screening length: 8.12261 Bohr) occupying 0.642401 of unit cell:	Completed after 2 iterations at t[s]:    466.95
	Linear fluid (dielectric constant: 78.4, screening length: 8.12261 Bohr) occupying 0.642401 of unit cell:	Completed after 0 iterations at t[s]:    467.87
	FillingsUpdate:  mu: -0.171000000  nElectrons: 760.780343  magneticMoment: [ Abs: 0.00000  Tot: +0.00000 ]
	SubspaceRotationAdjust: set factor to 0.432
ElecMinimize: Iter:  12  G: -7944.414258283642994  |grad|_K:  3.566e-08  alpha:  7.879e-02  linmin:  1.703e-04  t[s]:    469.51
ElecMinimize: Converged (|Delta G|<1.000000e-07 for 2 iters).
Setting wave functions to eigenvectors of Hamiltonian
Converging empty states (this may take a while): |deigs|: 1.524e-08

Computing DFT-D3 correction:
# coordination-number Cu 9.012 9.068 9.064 9.064 9.137 6.194 6.194 6.194 6.194 6.193 9.068 9.067 9.067 9.234 9.234 9.235 9.235 9.234 6.194 9.233 6.193 9.235 9.235 6.194 8.860 8.860 8.959 8.959 6.007 5.975 6.175 6.175 7.138 8.860 8.860 8.959 8.959 5.974 5.974 5.974
# coordination-number H 0.960
# diagonal-C6 Cu 175.00 175.00 175.00 175.00 175.00 175.00 175.00 175.00 175.00 175.00 175.00 175.00 175.00 175.00 175.00 175.00 175.00 175.00 175.00 175.00 175.00 175.00 175.00 175.00 175.00 175.00 175.00 175.00 175.00 175.00 175.00 175.00 175.00 175.00 175.00 175.00 175.00 175.00 175.00 175.00
# diagonal-C6 H 3.11
EvdW_6 =   -0.220798
EvdW_8 =   -0.341435
IonicMinimize: 	Wolfe criterion not satisfied: alpha: 1  (E-E0)/|gdotd0|: -0.982622  gdotd/gdotd0: 0.93451 (taking cubic step)

Computing DFT-D3 correction:
# coordination-number Cu 9.005 9.063 9.059 9.059 9.134 6.194 6.194 6.194 6.194 6.193 9.063 9.063 9.063 9.234 9.233 9.235 9.235 9.234 6.194 9.233 6.193 9.235 9.235 6.194 8.874 8.874 8.968 8.968 6.033 5.996 6.184 6.184 7.141 8.874 8.874 8.968 8.968 5.996 5.996 5.995
# coordination-number H 0.957
# diagonal-C6 Cu 175.00 175.00 175.00 175.00 175.00 175.00 175.00 175.00 175.00 175.00 175.00 175.00 175.00 175.00 175.00 175.00 175.00 175.00 175.00 175.00 175.00 175.00 175.00 175.00 175.00 175.00 175.00 175.00 175.00 175.00 175.00 175.00 175.00 175.00 175.00 175.00 175.00 175.00 175.00 175.00
# diagonal-C6 H 3.11
EvdW_6 =   -0.220814
EvdW_8 =   -0.341509
Shifting auxilliary hamiltonian by 0.000027 to set nElectrons=760.780343

-------- Electronic minimization -----------
	Linear fluid (dielectric constant: 78.4, screening length: 8.12261 Bohr) occupying 0.642453 of unit cell:	Completed after 6 iterations at t[s]:    476.36
	FillingsUpdate:  mu: -0.171000000  nElectrons: 760.780343  magneticMoment: [ Abs: 0.00000  Tot: +0.00000 ]
ElecMinimize: Iter:   0  G: -7944.414359286943181  |grad|_K:  5.024e-07  alpha:  1.000e+00
	Linear fluid (dielectric constant: 78.4, screening length: 8.12261 Bohr) occupying 0.642455 of unit cell:	Completed after 13 iterations at t[s]:    479.20
	Linear fluid (dielectric constant: 78.4, screening length: 8.12261 Bohr) occupying 0.642453 of unit cell:	Completed after 14 iterations at t[s]:    480.14
	FillingsUpdate:  mu: -0.171000000  nElectrons: 760.781819  magneticMoment: [ Abs: 0.00000  Tot: +0.00000 ]
	SubspaceRotationAdjust: set factor to 0.441
ElecMinimize: Iter:   1  G: -7944.414383122173604  |grad|_K:  3.494e-07  alpha:  1.190e-01  linmin:  5.813e-05  t[s]:    481.93
	Linear fluid (dielectric constant: 78.4, screening length: 8.12261 Bohr) occupying 0.642452 of unit cell:	Completed after 9 iterations at t[s]:    482.97
	Linear fluid (dielectric constant: 78.4, screening length: 8.12261 Bohr) occupying 0.642452 of unit cell:	Completed after 7 iterations at t[s]:    483.91
	FillingsUpdate:  mu: -0.171000000  nElectrons: 760.775091  magneticMoment: [ Abs: 0.00000  Tot: +0.00000 ]
	SubspaceRotationAdjust: set factor to 0.277
ElecMinimize: Iter:   2  G: -7944.414397847574037  |grad|_K:  5.078e-07  alpha:  1.507e-01  linmin: -2.340e-04  t[s]:    485.53
	Linear fluid (dielectric constant: 78.4, screening length: 8.12261 Bohr) occupying 0.642453 of unit cell:	Completed after 11 iterations at t[s]:    486.58
	Linear fluid (dielectric constant: 78.4, screening length: 8.12261 Bohr) occupying 0.642452 of unit cell:	Completed after 10 iterations at t[s]:    487.51
[...]
Shifting auxilliary hamiltonian by 0.000014 to set nElectrons=760.784752

-------- Electronic minimization -----------
	Linear fluid (dielectric constant: 78.4, screening length: 8.12261 Bohr) occupying 0.643735 of unit cell:	Completed after 6 iterations at t[s]:   2001.17
	FillingsUpdate:  mu: -0.171000000  nElectrons: 760.784752  magneticMoment: [ Abs: 0.00000  Tot: -0.00000 ]
ElecMinimize: Iter:   0  G: -7944.415340175773963  |grad|_K:  3.203e-07  alpha:  1.000e+00
	Linear fluid (dielectric constant: 78.4, screening length: 8.12261 Bohr) occupying 0.643738 of unit cell:	Completed after 9 iterations at t[s]:   2003.99
	Linear fluid (dielectric constant: 78.4, screening length: 8.12261 Bohr) occupying 0.643736 of unit cell:	Completed after 10 iterations at t[s]:   2004.94
	FillingsUpdate:  mu: -0.171000000  nElectrons: 760.785164  magneticMoment: [ Abs: 0.00000  Tot: -0.00000 ]
	SubspaceRotationAdjust: set factor to 0.223
ElecMinimize: Iter:   1  G: -7944.415350056161515  |grad|_K:  2.125e-07  alpha:  1.213e-01  linmin:  9.887e-05  t[s]:   2006.63
	Linear fluid (dielectric constant: 78.4, screening length: 8.12261 Bohr) occupying 0.643736 of unit cell:	Completed after 6 iterations at t[s]:   2007.67
	Linear fluid (dielectric constant: 78.4, screening length: 8.12261 Bohr) occupying 0.643736 of unit cell:	Completed after 7 iterations at t[s]:   2008.60
	FillingsUpdate:  mu: -0.171000000  nElectrons: 760.783438  magneticMoment: [ Abs: 0.00000  Tot: -0.00000 ]
	SubspaceRotationAdjust: set factor to 0.207
ElecMinimize: Iter:   2  G: -7944.415359036401242  |grad|_K:  1.628e-07  alpha:  2.473e-01  linmin: -4.895e-04  t[s]:   2010.23
	Linear fluid (dielectric constant: 78.4, screening length: 8.12261 Bohr) occupying 0.643736 of unit cell:	Completed after 10 iterations at t[s]:   2011.27
	Linear fluid (dielectric constant: 78.4, screening length: 8.12261 Bohr) occupying 0.643736 of unit cell:	Completed after 8 iterations at t[s]:   2012.23
	FillingsUpdate:  mu: -0.171000000  nElectrons: 760.786333  magneticMoment: [ Abs: 0.00000  Tot: -0.00000 ]
	SubspaceRotationAdjust: set factor to 0.149
ElecMinimize: Iter:   3  G: -7944.415361782604123  |grad|_K:  1.217e-07  alpha:  1.269e-01  linmin:  8.779e-05  t[s]:   2013.86
	Linear fluid (dielectric constant: 78.4, screening length: 8.12261 Bohr) occupying 0.643736 of unit cell:	Completed after 7 iterations at t[s]:   2014.90
	Linear fluid (dielectric constant: 78.4, screening length: 8.12261 Bohr) occupying 0.643735 of unit cell:	Completed after 0 iterations at t[s]:   2015.83
	FillingsUpdate:  mu: -0.171000000  nElectrons: 760.784651  magneticMoment: [ Abs: 0.00000  Tot: -0.00000 ]
	SubspaceRotationAdjust: set factor to 0.156
ElecMinimize: Iter:   4  G: -7944.415363442510170  |grad|_K:  6.792e-08  alpha:  1.403e-01  linmin: -8.791e-04  t[s]:   2017.49
	Linear fluid (dielectric constant: 78.4, screening length: 8.12261 Bohr) occupying 0.643735 of unit cell:	Completed after 2 iterations at t[s]:   2018.52
	Linear fluid (dielectric constant: 78.4, screening length: 8.12261 Bohr) occupying 0.643736 of unit cell:	Completed after 0 iterations at t[s]:   2019.45
	FillingsUpdate:  mu: -0.171000000  nElectrons: 760.784197  magneticMoment: [ Abs: 0.00000  Tot: -0.00000 ]
	SubspaceRotationAdjust: set factor to 0.169
ElecMinimize: Iter:   5  G: -7944.415364084143221  |grad|_K:  6.111e-08  alpha:  1.670e-01  linmin: -1.154e-03  t[s]:   2021.06
	Linear fluid (dielectric constant: 78.4, screening length: 8.12261 Bohr) occupying 0.643736 of unit cell:	Completed after 2 iterations at t[s]:   2022.10
	Linear fluid (dielectric constant: 78.4, screening length: 8.12261 Bohr) occupying 0.643736 of unit cell:	Completed after 0 iterations at t[s]:   2023.02
	FillingsUpdate:  mu: -0.171000000  nElectrons: 760.784543  magneticMoment: [ Abs: 0.00000  Tot: -0.00000 ]
	SubspaceRotationAdjust: set factor to 0.192
ElecMinimize: Iter:   6  G: -7944.415364956526901  |grad|_K:  4.834e-08  alpha:  2.677e-01  linmin: -1.000e-03  t[s]:   2024.64
	Linear fluid (dielectric constant: 78.4, screening length: 8.12261 Bohr) occupying 0.643736 of unit cell:	Completed after 2 iterations at t[s]:   2025.68
	Linear fluid (dielectric constant: 78.4, screening length: 8.12261 Bohr) occupying 0.643736 of unit cell:	Completed after 2 iterations at t[s]:   2026.61
	FillingsUpdate:  mu: -0.171000000  nElectrons: 760.784880  magneticMoment: [ Abs: 0.00000  Tot: -0.00000 ]
	SubspaceRotationAdjust: set factor to 0.223
ElecMinimize: Iter:   7  G: -7944.415365154170104  |grad|_K:  3.951e-08  alpha:  1.114e-01  linmin: -1.275e-05  t[s]:   2028.24
	Linear fluid (dielectric constant: 78.4, screening length: 8.12261 Bohr) occupying 0.643736 of unit cell:	Completed after 2 iterations at t[s]:   2029.28
	Linear fluid (dielectric constant: 78.4, screening length: 8.12261 Bohr) occupying 0.643736 of unit cell:	Completed after 0 iterations at t[s]:   2030.22
	FillingsUpdate:  mu: -0.171000000  nElectrons: 760.785023  magneticMoment: [ Abs: 0.00000  Tot: -0.00000 ]
	SubspaceRotationAdjust: set factor to 0.26
ElecMinimize: Iter:   8  G: -7944.415365362403463  |grad|_K:  4.408e-08  alpha:  1.597e-01  linmin: -7.802e-04  t[s]:   2031.87
	Linear fluid (dielectric constant: 78.4, screening length: 8.12261 Bohr) occupying 0.643736 of unit cell:	Completed after 2 iterations at t[s]:   2032.91
	Linear fluid (dielectric constant: 78.4, screening length: 8.12261 Bohr) occupying 0.643736 of unit cell:	Completed after 0 iterations at t[s]:   2033.85
	FillingsUpdate:  mu: -0.171000000  nElectrons: 760.785077  magneticMoment: [ Abs: 0.00000  Tot: -0.00000 ]
	SubspaceRotationAdjust: set factor to 0.274
ElecMinimize: Iter:   9  G: -7944.415365593869865  |grad|_K:  5.169e-08  alpha:  1.331e-01  linmin:  3.273e-05  t[s]:   2035.52
	Linear fluid (dielectric constant: 78.4, screening length: 8.12261 Bohr) occupying 0.643736 of unit cell:	Completed after 2 iterations at t[s]:   2036.55
	Linear fluid (dielectric constant: 78.4, screening length: 8.12261 Bohr) occupying 0.643736 of unit cell:	Completed after 2 iterations at t[s]:   2037.48
	FillingsUpdate:  mu: -0.171000000  nElectrons: 760.785207  magneticMoment: [ Abs: 0.00000  Tot: -0.00000 ]
	SubspaceRotationAdjust: set factor to 0.335
ElecMinimize: Iter:  10  G: -7944.415365726214077  |grad|_K:  3.558e-08  alpha:  6.886e-02  linmin: -1.430e-05  t[s]:   2039.14
	Linear fluid (dielectric constant: 78.4, screening length: 8.12261 Bohr) occupying 0.643736 of unit cell:	Completed after 2 iterations at t[s]:   2040.18
	Linear fluid (dielectric constant: 78.4, screening length: 8.12261 Bohr) occupying 0.643736 of unit cell:	Completed after 0 iterations at t[s]:   2041.10
	FillingsUpdate:  mu: -0.171000000  nElectrons: 760.785448  magneticMoment: [ Abs: 0.00000  Tot: -0.00000 ]
	SubspaceRotationAdjust: set factor to 0.423
ElecMinimize: Iter:  11  G: -7944.415365827272581  |grad|_K:  3.220e-08  alpha:  9.488e-02  linmin: -7.713e-04  t[s]:   2042.74
	Linear fluid (dielectric constant: 78.4, screening length: 8.12261 Bohr) occupying 0.643736 of unit cell:	Completed after 2 iterations at t[s]:   2043.78
	Linear fluid (dielectric constant: 78.4, screening length: 8.12261 Bohr) occupying 0.643736 of unit cell:	Completed after 0 iterations at t[s]:   2044.70
	FillingsUpdate:  mu: -0.171000000  nElectrons: 760.785736  magneticMoment: [ Abs: 0.00000  Tot: -0.00000 ]
	SubspaceRotationAdjust: set factor to 0.476
ElecMinimize: Iter:  12  G: -7944.415365925148762  |grad|_K:  3.748e-08  alpha:  1.003e-01  linmin: -4.781e-04  t[s]:   2046.33
	Linear fluid (dielectric constant: 78.4, screening length: 8.12261 Bohr) occupying 0.643736 of unit cell:	Completed after 2 iterations at t[s]:   2047.37
	Linear fluid (dielectric constant: 78.4, screening length: 8.12261 Bohr) occupying 0.643736 of unit cell:	Completed after 0 iterations at t[s]:   2048.29
	FillingsUpdate:  mu: -0.171000000  nElectrons: 760.785830  magneticMoment: [ Abs: 0.00000  Tot: +0.00000 ]
	SubspaceRotationAdjust: set factor to 0.519
ElecMinimize: Iter:  13  G: -7944.415366022190938  |grad|_K:  3.710e-08  alpha:  7.100e-02  linmin:  3.983e-04  t[s]:   2049.94
ElecMinimize: Converged (|Delta G|<1.000000e-07 for 2 iters).
Setting wave functions to eigenvectors of Hamiltonian
Converging empty states (this may take a while): |deigs|: 8.141e-09

Computing DFT-D3 correction:
# coordination-number Cu 9.091 9.152 9.151 9.151 9.221 6.194 6.194 6.194 6.194 6.193 9.152 9.152 9.152 9.235 9.235 9.237 9.237 9.235 6.194 9.235 6.193 9.237 9.237 6.194 9.081 9.081 9.148 9.148 6.156 6.147 6.243 6.243 7.191 9.081 9.081 9.148 9.148 6.147 6.146 6.146
# coordination-number H 0.958
# diagonal-C6 Cu 175.00 175.00 175.00 175.00 175.00 175.00 175.00 175.00 175.00 175.00 175.00 175.00 175.00 175.00 175.00 175.00 175.00 175.00 175.00 175.00 175.00 175.00 175.00 175.00 175.00 175.00 175.00 175.00 175.00 175.00 175.00 175.00 175.00 175.00 175.00 175.00 175.00 175.00 175.00 175.00
# diagonal-C6 H 3.11
EvdW_6 =   -0.221438
EvdW_8 =   -0.344111

# Ionic positions in cartesian coordinates:
ion Cu  10.082944999999999  11.763477999999997  35.290269000000002 0
ion Cu   0.000002000000000   1.680461000000000  35.290272999999999 0
ion Cu   3.361029000000000  11.763476999999998  35.290270999999990 0
ion Cu  10.082947000000001   5.041434000000000  35.290273999999989 0
ion Cu   3.361028000000000   5.041435000000000  35.290273999999989 0
ion Cu  10.082947000000001  11.763474000000000  28.568402999999996 0
ion Cu   0.000003000000000   1.680462000000000  28.568401000000001 0
ion Cu   3.361026000000000  11.763474000000000  28.568401000000001 0
ion Cu  10.082948000000000   5.041435000000000  28.568400000000000 0
ion Cu   3.361028000000000   5.041434000000000  28.568401999999995 0
ion Cu   6.722004000000000   1.680460000000000  35.290269000000002 0
ion Cu   0.000002000000000   8.402479000000000  35.290273999999989 0
ion Cu   6.722003000000000   8.402479000000000  35.290274999999994 0
ion Cu  10.082943999999999   1.680460000000000  31.929362999999995 0
ion Cu  13.443941000000001  11.763474999999998  31.929361999999998 0
ion Cu   3.361032000000000   1.680461000000000  31.929361999999998 0
ion Cu   0.000002000000000   5.041435000000000  31.929360999999997 0
ion Cu   6.722004000000000  11.763479999999998  31.929361999999998 0
ion Cu   6.722003000000000   1.680463000000000  28.568403999999997 0
ion Cu  10.082948000000000   8.402480000000001  31.929359999999999 0
ion Cu   0.000001000000000   8.402480000000001  28.568404999999998 0
ion Cu   3.361028000000000   8.402479000000000  31.929360999999997 0
ion Cu   6.722003000000000   5.041429000000000  31.929360999999997 0
ion Cu   6.722003000000000   8.402477999999999  28.568400000000000 0
ion Cu  10.082860598996897   1.681289658266951  38.738955516957560 1
ion Cu   0.000896491079889  11.763226100407556  38.739003125550774 1
ion Cu   3.360927699736633   1.684563110792014  38.679412807004070 1
ion Cu   0.004101998484213   5.041354798672462  38.679349945851328 1
ion Cu  10.082782530479639  11.763036912465113  42.079496303914524 1
ion Cu   0.018020588495417   1.698502395745272  42.092993032038841 1
ion Cu   3.360839987734999  11.763273532233836  42.040328234559993 1
ion Cu  10.082745555747620   5.041262672080847  42.040323019412284 1
ion Cu   3.360848200096321   5.040989709225560  42.052807514694408 1
ion Cu   6.720937628346546  11.763218697135658  38.739002879481454 1
ion Cu  10.082853498055652   8.401330643641851  38.739045325578253 1
ion Cu   3.360942821062015   8.398144191420206  38.679330821734382 1
ion Cu   6.717681114047864   5.041369380050251  38.679388917209351 1
ion Cu   6.703604670479923   1.698472847959123  42.093051962768349 1
ion Cu   0.018311685610084   8.383767336461258  42.093210410398243 1
ion Cu   6.703358858513080   8.383839830393693  42.093328931096551 1
ion H   3.360497085371760   5.043755488108071  44.892190549279974 1

# Forces in Cartesian coordinates:
force Cu  -0.000000162546822  -0.000007679532211   0.003652754626130 0
force Cu  -0.001236667476399  -0.001238682943113   0.002562966955828 0
force Cu  -0.000004917558983  -0.000006136522106   0.001792483818807 0
force Cu  -0.000001448654634   0.000000719336113   0.001791709669016 0
force Cu  -0.000006167455498  -0.000000834000948   0.002406063141087 0
force Cu   0.000003677872600  -0.000000225083260   0.000550279082034 0
force Cu  -0.000280005034386  -0.000279914223951   0.000658922534993 0
force Cu  -0.000000239566617  -0.000001284169564   0.000497878095275 0
force Cu   0.000002166981423   0.000004091071526   0.000498417776446 0
force Cu  -0.000001274401177   0.000002580149002   0.000103399699533 0
force Cu   0.001231764351203  -0.001238085456756   0.002565823804908 0
force Cu  -0.001237828516249   0.001229887667456   0.002562870214665 0
force Cu   0.001233080934583   0.001229420478124   0.002563663669876 0
force Cu   0.000005189894308  -0.000564685938785  -0.003194818486225 0
force Cu  -0.000566916280069  -0.000002431119368  -0.003194317178029 0
force Cu  -0.000001533639459   0.000315651544377  -0.002890719807704 0
force Cu   0.000314622996198   0.000004458820647  -0.002890182943132 0
force Cu   0.000569142273581  -0.000003298234591  -0.003194732466500 0
force Cu   0.000285102191168  -0.000279806487182   0.000656495768936 0
force Cu   0.000004329511594   0.000569568930455  -0.003194037525332 0
force Cu  -0.000280302530100   0.000284549116882   0.000659488478168 0
force Cu  -0.000000732637612  -0.000315507381044  -0.002890107134129 0
force Cu  -0.000314659438852   0.000005380162924  -0.002890424518665 0
force Cu   0.000285516221108   0.000284484168550   0.000658019855187 0
force Cu  -0.000001245349932   0.000016571162876   0.000015834870459 1
force Cu   0.000017085675046  -0.000001958972400   0.000015520218985 1
force Cu   0.000000621599165  -0.000015434720893  -0.000155644444905 1
force Cu  -0.000015615234816   0.000000228650944  -0.000156233274897 1
force Cu  -0.000000496924399  -0.000002215194441   0.000280440520674 1
force Cu   0.000009082844496   0.000008741328596  -0.000036809464551 1
force Cu  -0.000001639598405  -0.000000263660848   0.000342796271461 1
force Cu  -0.000000565703413  -0.000001645325401   0.000342908794915 1
force Cu  -0.000001688596834  -0.000000862394907   0.000139044239859 1
force Cu  -0.000019998411990  -0.000001116257868   0.000016867099449 1
force Cu  -0.000000405347427  -0.000020553160225   0.000016501521260 1
force Cu  -0.000000248490720   0.000014743228663  -0.000156976966281 1
force Cu   0.000014619825879  -0.000000631561804  -0.000156480832902 1
force Cu  -0.000008955820966   0.000009069142141  -0.000038944158447 1
force Cu   0.000009638919131  -0.000009743070406  -0.000037798059210 1
force Cu  -0.000009562649537  -0.000010064486210  -0.000040755610130 1
force H  -0.000000747982815   0.000015738725436  -0.000023715233229 1

# Energy components:
   A_diel =        0.0205214474583303
   Eewald =    64398.6854323715306236
       EH =    71706.1281001088500489
     Eloc =  -145695.2221750088501722
      Enl =     1464.9034851741175771
     EvdW =       -0.5655481831460893
      Exc =     -776.4831205948844399
 Exc_core =        1.8788697105241026
       KE =      826.1332572785415778
  MuShift =        0.0126766412449373
-------------------------------------
     Etot =    -8074.5085010546226840
       TS =        0.0012418418519077
-------------------------------------
        F =    -8074.5097428964745632
      muN =     -130.0943768742837960
-------------------------------------
        G =    -7944.4153660221909377

IonicMinimize: Iter:   9  G: -7944.415366022190938  |grad|_K:  9.306e-05  alpha:  5.188e-02  linmin:  1.980e-03  t[s]:   2055.15
IonicMinimize: Converged (|grad|_K<1.000000e-04).

#--- Lowdin population analysis ---
# oxidation-state Cu +0.076 +0.077 +0.075 +0.075 +0.075 +0.150 +0.156 +0.156 +0.156 +0.165 +0.077 +0.077 +0.077 +0.038 +0.038 +0.037 +0.037 +0.038 +0.156 +0.038 +0.156 +0.037 +0.037 +0.156 +0.037 +0.037 +0.047 +0.047 +0.161 +0.181 +0.162 +0.162 -0.118 +0.037 +0.037 +0.047 +0.047 +0.181 +0.181 +0.181
# magnetic-moments Cu +0.000 -0.000 -0.000 +0.000 +0.000 +0.000 +0.000 -0.000 +0.000 -0.000 +0.000 -0.000 +0.000 -0.000 +0.000 +0.000 -0.000 -0.000 -0.000 +0.000 +0.000 -0.000 +0.000 -0.000 -0.000 -0.000 -0.000 +0.000 +0.000 -0.000 -0.000 +0.000 +0.000 +0.000 -0.000 -0.000 -0.000 -0.000 +0.000 -0.000
# oxidation-state H +0.041
# magnetic-moments H +0.000


Dumping 'fillings' ... done
Dumping 'wfns' ... done
Dumping 'fluidState' ... done
Dumping 'ionpos' ... done
Dumping 'force' ... done
Dumping 'n_up' ... done
Dumping 'n_dn' ... done
Dumping 'd_tot' ... done
Dumping 'eigenvals' ... done
Dumping 'bandProjections' ... done
Dumping 'Ecomponents' ... done
Dumping 'kPts' ... done
End date and time: Mon Nov 20 02:58:31 2023  (Duration: 0-0:34:29.58)
Done!

PROFILER:             augmentDensityGrid     0.005870 +/-     0.006012 s, 2152 calls,     12.631344 s total
PROFILER:         augmentDensityGridGrad     0.175253 +/-     0.172860 s, 1112 calls,    194.880905 s total
PROFILER:        augmentDensitySpherical     0.002082 +/-     0.002014 s, 17216 calls,     35.851552 s total
PROFILER:    augmentDensitySphericalGrad     0.001950 +/-     0.001884 s, 10078 calls,     19.655307 s total
PROFILER:                 augmentOverlap     0.009802 +/-     0.008825 s, 34124 calls,    334.498687 s total
PROFILER:                     changeGrid     0.000031 +/-     0.000001 s, 18446 calls,      0.574665 s total
PROFILER:        ColumnBundle::randomize     0.020022 +/-     0.000091 s,    8 calls,      0.160178 s total
PROFILER:                     diagouterI     0.028958 +/-     0.001115 s, 8608 calls,    249.274430 s total
PROFILER:              EdensityAndVscloc     0.060194 +/-     0.014705 s, 1077 calls,     64.829122 s total
PROFILER:                     EnlAndGrad     0.003722 +/-     0.003578 s, 17358 calls,     64.602741 s total
PROFILER:            ExCorrCommunication     0.006818 +/-     0.009467 s, 6629 calls,     45.196937 s total
PROFILER:               ExCorrFunctional     0.000178 +/-     0.000018 s, 1123 calls,      0.199906 s total
PROFILER:                    ExCorrTotal     0.040986 +/-     0.010997 s, 1123 calls,     46.027127 s total
PROFILER:                   Idag_DiagV_I     0.052793 +/-     0.011985 s, 4919 calls,    259.686944 s total
PROFILER:                    initWeights     0.099818 +/-     0.000000 s,    1 calls,      0.099818 s total
PROFILER:                    inv(matrix)     0.003306 +/-     0.000097 s, 7896 calls,     26.103739 s total
PROFILER:            matrix::diagonalize     0.008617 +/-     0.001220 s, 13471 calls,    116.084942 s total
PROFILER:                    matrix::set     0.000010 +/-     0.000019 s, 566174 calls,      5.527808 s total
PROFILER:            orthoMatrix(matrix)     0.002195 +/-     0.000583 s, 8423 calls,     18.490597 s total
PROFILER:     RadialFunctionR::transform     0.004878 +/-     0.013308 s,   72 calls,      0.351211 s total
PROFILER:                    reduceKmesh     0.000004 +/-     0.000000 s,    1 calls,      0.000004 s total
PROFILER:   VanDerWaalsD3::energyAndGrad     0.467954 +/-     0.004034 s,   31 calls,     14.506581 s total
PROFILER:               WavefunctionDrag     0.739218 +/-     0.100495 s,   15 calls,     11.088268 s total
PROFILER:                            Y*M     0.004625 +/-     0.002777 s, 78606 calls,    363.539111 s total
PROFILER:                          Y1^Y2     0.005744 +/-     0.004108 s, 53408 calls,    306.777257 s total

MEMUSAGE:                   ColumnBundle    12.814212 GB
MEMUSAGE:        complexScalarFieldTilde     0.013458 GB
MEMUSAGE:                    IndexArrays     0.025991 GB
MEMUSAGE:                         matrix     0.327327 GB
MEMUSAGE:                           misc     0.028171 GB
MEMUSAGE:                    ScalarField     0.283203 GB
MEMUSAGE:               ScalarFieldTilde     0.206360 GB
MEMUSAGE:                          Total    13.343906 GB
