
*************** JDFTx 1.7.0 (git hash 80df9f08) ***************

Start date and time: Tue Feb  6 06:16:42 2024
Executable /global/cfs/cdirs/m4025/Software/Perlmutter/JDFTx/build-gpu/jdftx_gpu with command-line: -i in -o out
Running on hosts (process indices):  nid002681 (0-1)
Divided in process groups (process indices):  0 (0)  1 (1)
gpuInit: Found compatible cuda device 0 'NVIDIA A100-SXM4-40GB'
gpuInit: Found compatible cuda device 1 'NVIDIA A100-SXM4-40GB'
gpuInit: Selected device 0
Resource initialization completed at t[s]:      0.91
Run totals: 2 processes, 64 threads, 2 GPUs
Memory pool size: 36000 MB (per process)


Input parsed successfully to the following command list (including defaults):

basis kpoint-dependent
converge-empty-states yes
coords-type Cartesian
core-overlap-check none
coulomb-interaction Slab 001
coulomb-truncation-embed 5.2053 10.1507 0.035487
davidson-band-ratio 1.1
density-of-states Etol 1.000000e-06 Esigma 0.000000e+00 \
		Complete \
	Orbital Co 1   s \
	Orbital Co 1   d \
	Orbital Co 1   dxy \
	Orbital Co 1   dxz \
	Orbital Co 1   dyz \
	Orbital Co 1   dz2 \
	Orbital Co 1   dx2-y2 \
	Orbital N 1   s \
	Orbital N 1   p \
	Orbital N 1   px \
	Orbital N 1   py \
	Orbital N 1   pz \
	Orbital C 1   s \
	Orbital C 1   p \
	Orbital C 1   px \
	Orbital C 1   py \
	Orbital C 1   pz \
	Orbital C 2   s \
	Orbital C 2   p \
	Orbital C 2   px \
	Orbital C 2   py \
	Orbital C 2   pz \
	Orbital C 3   s \
	Orbital C 3   p \
	Orbital C 3   px \
	Orbital C 3   py \
	Orbital C 3   pz \
	Orbital C 4   s \
	Orbital C 4   p \
	Orbital C 4   px \
	Orbital C 4   py \
	Orbital C 4   pz \
	Orbital C 5   s \
	Orbital C 5   p \
	Orbital C 5   px \
	Orbital C 5   py \
	Orbital C 5   pz \
	Orbital C 6   s \
	Orbital C 6   p \
	Orbital C 6   px \
	Orbital C 6   py \
	Orbital C 6   pz \
	Orbital C 7   s \
	Orbital C 7   p \
	Orbital C 7   px \
	Orbital C 7   py \
	Orbital C 7   pz \
	Orbital C 8   s \
	Orbital C 8   p \
	Orbital C 8   px \
	Orbital C 8   py \
	Orbital C 8   pz \
	Orbital C 9   s \
	Orbital C 9   p \
	Orbital C 9   px \
	Orbital C 9   py \
	Orbital C 9   pz \
	Orbital C 10   s \
	Orbital C 10   p \
	Orbital C 10   px \
	Orbital C 10   py \
	Orbital C 10   pz \
	Orbital C 11   s \
	Orbital C 11   p \
	Orbital C 11   px \
	Orbital C 11   py \
	Orbital C 11   pz \
	Orbital C 12   s \
	Orbital C 12   p \
	Orbital C 12   px \
	Orbital C 12   py \
	Orbital C 12   pz \
	Orbital C 13   s \
	Orbital C 13   p \
	Orbital C 13   px \
	Orbital C 13   py \
	Orbital C 13   pz \
	Orbital C 14   s \
	Orbital C 14   p \
	Orbital C 14   px \
	Orbital C 14   py \
	Orbital C 14   pz \
	Orbital C 15   s \
	Orbital C 15   p \
	Orbital C 15   px \
	Orbital C 15   py \
	Orbital C 15   pz \
	Orbital C 16   s \
	Orbital C 16   p \
	Orbital C 16   px \
	Orbital C 16   py \
	Orbital C 16   pz \
	Orbital C 17   s \
	Orbital C 17   p \
	Orbital C 17   px \
	Orbital C 17   py \
	Orbital C 17   pz \
	Orbital C 18   s \
	Orbital C 18   p \
	Orbital C 18   px \
	Orbital C 18   py \
	Orbital C 18   pz \
	Orbital C 19   s \
	Orbital C 19   p \
	Orbital C 19   px \
	Orbital C 19   py \
	Orbital C 19   pz \
	Orbital C 20   s \
	Orbital C 20   p \
	Orbital C 20   px \
	Orbital C 20   py \
	Orbital C 20   pz \
	Orbital C 21   s \
	Orbital C 21   p \
	Orbital C 21   px \
	Orbital C 21   py \
	Orbital C 21   pz \
	Orbital C 22   s \
	Orbital C 22   p \
	Orbital C 22   px \
	Orbital C 22   py \
	Orbital C 22   pz \
	Orbital C 23   s \
	Orbital C 23   p \
	Orbital C 23   px \
	Orbital C 23   py \
	Orbital C 23   pz \
	Orbital C 24   s \
	Orbital C 24   p \
	Orbital C 24   px \
	Orbital C 24   py \
	Orbital C 24   pz \
	Orbital C 25   s \
	Orbital C 25   p \
	Orbital C 25   px \
	Orbital C 25   py \
	Orbital C 25   pz \
	Orbital C 26   s \
	Orbital C 26   p \
	Orbital C 26   px \
	Orbital C 26   py \
	Orbital C 26   pz \
	Orbital C 27   s \
	Orbital C 27   p \
	Orbital C 27   px \
	Orbital C 27   py \
	Orbital C 27   pz \
	Orbital C 28   s \
	Orbital C 28   p \
	Orbital C 28   px \
	Orbital C 28   py \
	Orbital C 28   pz \
	Orbital C 29   s \
	Orbital C 29   p \
	Orbital C 29   px \
	Orbital C 29   py \
	Orbital C 29   pz \
	Orbital C 30   s \
	Orbital C 30   p \
	Orbital C 30   px \
	Orbital C 30   py \
	Orbital C 30   pz \
	Orbital C 31   s \
	Orbital C 31   p \
	Orbital C 31   px \
	Orbital C 31   py \
	Orbital C 31   pz \
	Orbital C 32   s \
	Orbital C 32   p \
	Orbital C 32   px \
	Orbital C 32   py \
	Orbital C 32   pz \
	Orbital C 33   s \
	Orbital C 33   p \
	Orbital C 33   px \
	Orbital C 33   py \
	Orbital C 33   pz \
	Orbital C 34   s \
	Orbital C 34   p \
	Orbital C 34   px \
	Orbital C 34   py \
	Orbital C 34   pz \
	Orbital C 35   s \
	Orbital C 35   p \
	Orbital C 35   px \
	Orbital C 35   py \
	Orbital C 35   pz \
	Orbital C 36   s \
	Orbital C 36   p \
	Orbital C 36   px \
	Orbital C 36   py \
	Orbital C 36   pz \
	Orbital C 37   s \
	Orbital C 37   p \
	Orbital C 37   px \
	Orbital C 37   py \
	Orbital C 37   pz \
	Orbital C 38   s \
	Orbital C 38   p \
	Orbital C 38   px \
	Orbital C 38   py \
	Orbital C 38   pz \
	Orbital C 39   s \
	Orbital C 39   p \
	Orbital C 39   px \
	Orbital C 39   py \
	Orbital C 39   pz \
	Orbital C 40   s \
	Orbital C 40   p \
	Orbital C 40   px \
	Orbital C 40   py \
	Orbital C 40   pz \
	Orbital C 41   s \
	Orbital C 41   p \
	Orbital C 41   px \
	Orbital C 41   py \
	Orbital C 41   pz \
	Orbital C 42   s \
	Orbital C 42   p \
	Orbital C 42   px \
	Orbital C 42   py \
	Orbital C 42   pz \
	Orbital C 43   s \
	Orbital C 43   p \
	Orbital C 43   px \
	Orbital C 43   py \
	Orbital C 43   pz \
	Orbital C 44   s \
	Orbital C 44   p \
	Orbital C 44   px \
	Orbital C 44   py \
	Orbital C 44   pz \
	Orbital C 45   s \
	Orbital C 45   p \
	Orbital C 45   px \
	Orbital C 45   py \
	Orbital C 45   pz \
	Orbital C 46   s \
	Orbital C 46   p \
	Orbital C 46   px \
	Orbital C 46   py \
	Orbital C 46   pz \
	Orbital C 47   s \
	Orbital C 47   p \
	Orbital C 47   px \
	Orbital C 47   py \
	Orbital C 47   pz \
	Total
dump End State Forces ElecDensity KEdensity Dtot VfluidTot BandEigs EigStats Ecomponents BoundCharge DOS
dump 
dump 
dump 
dump 
dump 
dump 
dump 
dump 
dump 
dump 
dump 
dump-name $VAR
elec-cutoff 20 100
elec-eigen-algo Davidson
elec-ex-corr gga-PBE
elec-initial-magnetization 5.000000 no
elec-n-bands 126
elec-smearing Fermi 0.001
electronic-minimize  \
	dirUpdateScheme      FletcherReeves \
	linminMethod         DirUpdateRecommended \
	nIterations          100 \
	history              15 \
	knormThreshold       0 \
	maxThreshold         no \
	energyDiffThreshold  1e-07 \
	nEnergyDiff          2 \
	alphaTstart          1 \
	alphaTmin            1e-10 \
	updateTestStepSize   yes \
	alphaTreduceFactor   0.1 \
	alphaTincreaseFactor 3 \
	nAlphaAdjustMax      3 \
	wolfeEnergy          0.0001 \
	wolfeGradient        0.9 \
	fdTest               no
exchange-regularization WignerSeitzTruncated
fluid LinearPCM 298.000000 1.013250
fluid-anion F- 0.5 MeanFieldLJ \
	epsBulk 1 \
	pMol 0 \
	epsInf 1 \
	Pvap 0 \
	sigmaBulk 0 \
	Rvdw 2.24877 \
	Res 0 \
	tauNuc 343133
fluid-cation Na+ 0.5 MeanFieldLJ \
	epsBulk 1 \
	pMol 0 \
	epsInf 1 \
	Pvap 0 \
	sigmaBulk 0 \
	Rvdw 2.19208 \
	Res 0 \
	tauNuc 343133
fluid-ex-corr (null) lda-PZ
fluid-gummel-loop 10 1.000000e-05
fluid-minimize  \
	dirUpdateScheme      PolakRibiere \
	linminMethod         DirUpdateRecommended \
	nIterations          400 \
	history              15 \
	knormThreshold       1e-11 \
	maxThreshold         no \
	energyDiffThreshold  0 \
	nEnergyDiff          2 \
	alphaTstart          1 \
	alphaTmin            1e-10 \
	updateTestStepSize   yes \
	alphaTreduceFactor   0.1 \
	alphaTincreaseFactor 3 \
	nAlphaAdjustMax      6 \
	wolfeEnergy          0.0001 \
	wolfeGradient        0.9 \
	fdTest               no
fluid-solvent H2O 55.338 ScalarEOS \
	epsBulk 78.4 \
	pMol 0.92466 \
	epsInf 1.77 \
	Pvap 1.06736e-10 \
	sigmaBulk 4.62e-05 \
	Rvdw 2.61727 \
	Res 1.42 \
	tauNuc 343133 \
	poleEl 15 7 1
forces-output-coords Positions
initial-state $VAR
ion C  -0.008701000000000   0.021739000000000   0.024861000000000 1
ion C  21.173293999999999   3.964839000000000   0.031641000000000 1
ion C  18.827735999999998   8.001033000000000   0.036964000000000 1
ion C  -7.059466000000000  12.029569000000000   0.035507000000000 1
ion C  -9.404055999999999  16.064700999999999   0.028255000000000 1
ion C   4.701526000000001   0.151171000000000   0.026339000000000 1
ion C   2.275380000000001   4.163178000000000   0.037965000000000 1
ion C  -0.165207999999999   7.941380999999999   0.044808000000000 1
ion C  -2.448258000000000  12.009665000000000   0.036941000000000 1
ion C  -4.729393000000000  16.065301999999999   0.029110000000000 1
ion C   9.435797999999998   0.036410000000000   0.026205000000000 1
ion C   7.121667999999999   4.149822000000000   0.034971000000000 1
ion C  -0.014685000000001  15.958780000000001   0.030978000000000 1
ion C   2.376721000000001  19.917404000000001   0.028381000000000 1
ion C  11.846905000000000   3.970796000000000   0.031445000000000 1
ion C   9.656216000000002   7.986193000000000   0.042314000000000 1
ion C   4.722306999999999  15.857877999999999   0.035782000000000 1
ion C   7.075536999999999  19.916278999999999   0.027816000000000 1
ion C  16.514410000000002   3.950052000000000   0.032965000000000 1
ion C  14.236091000000000   7.998512000000000   0.036939000000000 1
ion C  11.923795999999999  12.039118999999998   0.035454000000000 1
ion C   9.461217999999999  15.952233999999999   0.030004000000000 1
ion C  -0.034458000000000   2.708299999999999   0.029092000000000 1
ion C  -2.460471000000000   6.619802999999999   0.036078000000000 1
ion C  -4.762333000000000  10.670211999999999   0.037168000000000 1
ion C  -7.065206000000000  14.721447000000000   0.031240000000000 1
ion C  -9.417239000000000  18.745588000000001   0.025310000000000 1
ion C   4.705472000000000   2.851059999999999   0.032844000000000 1
ion C  -0.152447000000000  10.660361000000000   0.044472000000000 1
ion C  -2.395850000000000  14.692701000000000   0.032174000000000 1
ion C  -4.726491999999999  18.754768999999996   0.026046000000000 1
ion C   9.453098000000001   2.719993000000000   0.028794000000000 1
ion C   2.318848000000001  14.542008999999998   0.038799000000000 1
ion C  -0.002572999999999  18.642741000000001   0.027346000000000 1
ion C  14.173684000000000   2.608401000000000   0.030476000000000 1
ion C  11.931247000000001   6.641507000000000   0.035855000000000 1
ion C   9.645383000000002  10.685485999999997   0.043349000000000 1
ion C   7.119183999999998  14.523278999999999   0.038844000000000 1
ion C   4.725261999999998  18.543771000000000   0.029351000000000 1
ion C  18.844074999999997   2.601995000000000   0.030291000000000 1
ion C  16.530856999999997   6.641713000000000   0.036217000000000 1
ion C  14.232361000000001  10.684297999999998   0.036399000000000 1
ion C  11.854229999999999  14.710872000000000   0.030812000000000 1
ion C   9.450751000000000  18.638230000000000   0.026019000000000 1
ion C   2.213734999999998  11.870953000000000   0.052861000000000 1
ion C   7.268619000000000   6.818785000000000   0.049060000000000 1
ion C   7.243299000000001  11.847277000000000   0.052273000000000 1
ion N   2.121862999999999   6.751426000000000   0.053691000000000 1
ion Co   4.725829999999999   9.339727999999999   0.078357000000000 1
ion-species GBRV_v1.5/$ID_pbe_v1.uspp
ion-width Ecut
ionic-minimize  \
	dirUpdateScheme      L-BFGS \
	linminMethod         DirUpdateRecommended \
	nIterations          100 \
	history              15 \
	knormThreshold       0.000388938 \
	maxThreshold         yes \
	energyDiffThreshold  3.67493e-06 \
	nEnergyDiff          2 \
	alphaTstart          1 \
	alphaTmin            1e-10 \
	updateTestStepSize   yes \
	alphaTreduceFactor   0.1 \
	alphaTincreaseFactor 3 \
	nAlphaAdjustMax      3 \
	wolfeEnergy          0.0001 \
	wolfeGradient        0.9 \
	fdTest               no
kpoint   0.000000000000   0.000000000000   0.000000000000  1.00000000000000
kpoint-folding 4 4 1 
latt-move-scale 0 0 0
latt-scale 1 1 1 
lattice  \
	  23.589351000000001  -11.783075000000000    0.000000000000000  \
	   0.012400000000000   19.990358000000001    0.000000000000000  \
	   0.000000000000000    0.000000000000000   43.256211000000000 
lattice-minimize  \
	dirUpdateScheme      L-BFGS \
	linminMethod         DirUpdateRecommended \
	nIterations          0 \
	history              15 \
	knormThreshold       0 \
	maxThreshold         no \
	energyDiffThreshold  1e-06 \
	nEnergyDiff          2 \
	alphaTstart          1 \
	alphaTmin            1e-10 \
	updateTestStepSize   yes \
	alphaTreduceFactor   0.1 \
	alphaTincreaseFactor 3 \
	nAlphaAdjustMax      3 \
	wolfeEnergy          0.0001 \
	wolfeGradient        0.9 \
	fdTest               no
lcao-params -1 1e-06 0.001
pcm-variant CANDLE
perturb-minimize  \
	nIterations            0 \
	algorithm              MINRES \
	residualTol            0.0001 \
	residualDiffThreshold  0.0001 \
	CGBypass               no \
	recomputeResidual      no
spintype z-spin
subspace-rotation-factor 1 yes
symmetries none
symmetry-threshold 0.0001
target-mu -0.1713 no

van-der-waals D3


Applied RMS atom displacement 0 bohrs to make symmetries exact.

---------- Initializing the Grid ----------
R = 
[      23.5894     -11.7831            0  ]
[       0.0124      19.9904            0  ]
[            0            0      43.2562  ]
unit cell volume = 20404.2
G =
[   0.266274   0.156952         -0  ]
[ -0.00016517   0.314213          0  ]
[          0         -0   0.145255  ]
Minimum fftbox size, Smin = [  108  108  196  ]
Chosen fftbox size, S = [  108  108  196  ]

---------- Initializing tighter grid for wavefunction operations ----------
R = 
[      23.5894     -11.7831            0  ]
[       0.0124      19.9904            0  ]
[            0            0      43.2562  ]
unit cell volume = 20404.2
G =
[   0.266274   0.156952         -0  ]
[ -0.00016517   0.314213          0  ]
[          0         -0   0.145255  ]
Minimum fftbox size, Smin = [  96  96  176  ]
Chosen fftbox size, S = [  96  96  180  ]

---------- Exchange Correlation functional ----------
Initalized PBE GGA exchange.
Initalized PBE GGA correlation.

---------- Setting up pseudopotentials ----------
Width of ionic core gaussian charges (only for fluid interactions / plotting) set to 0.397384

Reading pseudopotential file '/global/u2/r/ravish/Project-BEAST/Software/Perlmutter/JDFTx/build-gpu/pseudopotentials/GBRV_v1.5/c_pbe_v1.uspp':
  Title: C.  Created by USPP 7.3.6 on 3-2-2014
  Reference state energy: -5.406344.  4 valence electrons in orbitals:
    |200>  occupation: 2  eigenvalue: -0.504890
    |210>  occupation: 2  eigenvalue: -0.194356
  lMax: 1  lLocal: 2  QijEcut: 5
  4 projectors sampled on a log grid with 503 points:
    l: 0  eig: -0.504890  rCut: 1.3
    l: 0  eig: 0.000000  rCut: 1.3
    l: 1  eig: -0.194357  rCut: 1.3
    l: 1  eig: 0.000000  rCut: 1.3
  Partial core density with radius 1.1
  Transforming core density to a uniform radial grid of dG=0.02 with 1631 points.
  Transforming local potential to a uniform radial grid of dG=0.02 with 1631 points.
  Transforming nonlocal projectors to a uniform radial grid of dG=0.02 with 432 points.
  Transforming density augmentations to a uniform radial grid of dG=0.02 with 1631 points.
  Transforming atomic orbitals to a uniform radial grid of dG=0.02 with 432 points.
  Core radius for overlap checks: 1.30 bohrs.

Reading pseudopotential file '/global/u2/r/ravish/Project-BEAST/Software/Perlmutter/JDFTx/build-gpu/pseudopotentials/GBRV_v1.5/n_pbe_v1.uspp':
  Title: N.  Created by USPP 7.3.6 on 3-2-2014
  Reference state energy: -9.763716.  5 valence electrons in orbitals:
    |200>  occupation: 2  eigenvalue: -0.681964
    |210>  occupation: 3  eigenvalue: -0.260726
  lMax: 1  lLocal: 2  QijEcut: 6
  4 projectors sampled on a log grid with 491 points:
    l: 0  eig: -0.681964  rCut: 1.15
    l: 0  eig: 0.000000  rCut: 1.15
    l: 1  eig: -0.260729  rCut: 1.2
    l: 1  eig: 0.500000  rCut: 1.2
  Partial core density with radius 0.8
  Transforming core density to a uniform radial grid of dG=0.02 with 1631 points.
  Transforming local potential to a uniform radial grid of dG=0.02 with 1631 points.
  Transforming nonlocal projectors to a uniform radial grid of dG=0.02 with 432 points.
  Transforming density augmentations to a uniform radial grid of dG=0.02 with 1631 points.
  Transforming atomic orbitals to a uniform radial grid of dG=0.02 with 432 points.
  Core radius for overlap checks: 1.20 bohrs.

Reading pseudopotential file '/global/u2/r/ravish/Project-BEAST/Software/Perlmutter/JDFTx/build-gpu/pseudopotentials/GBRV_v1.5/co_pbe_v1.uspp':
  Title: Co.  Created by USPP 7.3.6 on 3-2-2014
  Reference state energy: -148.607580.  17 valence electrons in orbitals:
    |300>  occupation: 2  eigenvalue: -4.087341
    |310>  occupation: 6  eigenvalue: -2.736774
    |320>  occupation: 7  eigenvalue: -0.623250
    |400>  occupation: 1  eigenvalue: -0.469021
    |410>  occupation: 0  eigenvalue: -0.274428
  lMax: 2  lLocal: 3  QijEcut: 6
  6 projectors sampled on a log grid with 609 points:
    l: 0  eig: -4.087343  rCut: 1.5
    l: 0  eig: -0.469023  rCut: 1.5
    l: 1  eig: -2.736775  rCut: 1.5
    l: 1  eig: -0.274432  rCut: 1.5
    l: 2  eig: -0.623250  rCut: 1.55
    l: 2  eig: -1.000000  rCut: 1.55
  Partial core density with radius 0.65
  Transforming core density to a uniform radial grid of dG=0.02 with 1631 points.
  Transforming local potential to a uniform radial grid of dG=0.02 with 1631 points.
  Transforming nonlocal projectors to a uniform radial grid of dG=0.02 with 432 points.
  Transforming density augmentations to a uniform radial grid of dG=0.02 with 1631 points.
  Transforming atomic orbitals to a uniform radial grid of dG=0.02 with 432 points.
  Core radius for overlap checks: 1.55 bohrs.

Initialized 3 species with 49 total atoms.

Folded 1 k-points by 4x4x1 to 16 k-points.

---------- Setting up k-points, bands, fillings ----------
No reducable k-points. 
Computing the number of bands and number of electrons
Calculating initial fillings.
nElectrons: 210.000000   nBands: 126   nStates: 32

----- Setting up reduced wavefunction bases (one per k-point) -----
average nbasis = 87169.188 , ideal nbasis = 87168.299

----- Initializing Supercell corresponding to k-point mesh -----
Lattice vector linear combinations in supercell:
[   4   0   0  ]
[   0   4   0  ]
[   0   0   1  ]
Supercell lattice vectors:
[  94.3574  -47.1323  0  ]
[  0.0496  79.9614  0  ]
[  0  0  43.2562  ]

---------- Setting up coulomb interaction ----------
Fluid mode embedding: using embedded box, but periodic Coulomb kernel.
(Fluid response is responsible for (approximate) separation between periodic images.)
Setting up double-sized grid for truncated Coulomb potentials:
R = 
[      23.5894     -11.7831            0  ]
[       0.0124      19.9904            0  ]
[            0            0      86.5124  ]
unit cell volume = 40808.4
G =
[   0.266274   0.156952         -0  ]
[ -0.00016517   0.314213          0  ]
[          0         -0  0.0726276  ]
Chosen fftbox size, S = [  108  108  392  ]
Integer grid location selected as the embedding center:
   Grid: [  51  55  0  ]
   Lattice: [  0.474156  0.507486  0.000820391  ]
   Cartesian: [  5.2053  10.1507  0.035487  ]
Constructing Wigner-Seitz cell: 8 faces (6 quadrilaterals, 2 hexagons)
Range-separation parameter for embedded mesh potentials due to point charges: 0.592661 bohrs.

Initializing DFT-D3 calculator:
	Parameters set for gga-PBE functional
	s6:  1.000  s_r6:  1.217
	s8:  0.722  s_r8:  1.000
	Per-atom parameters loaded for:
	 C:  sqrtQ[a0]:  3.105  Rcov[a0]:  1.417  CN: [ 0.00 0.99 2.00 3.00 3.98 ]
	 N:  sqrtQ[a0]:  2.712  Rcov[a0]:  1.342  CN: [ 0.00 0.99 2.01 2.99 ]
	Co:  sqrtQ[a0]:  5.414  Rcov[a0]:  1.890  CN: [ 0.00 1.71 2.93 7.78 ]

Initializing DFT-D2 calculator for fluid / solvation:
	 C:  C6:   30.35 Eh-a0^6  R0: 2.744 a0
	 N:  C6:   21.33 Eh-a0^6  R0: 2.640 a0
	Co:  C6:  187.33 Eh-a0^6  R0: 2.952 a0

---------- Setting up ewald sum ----------
Optimum gaussian width for ewald sums = 7.180046 bohr.
Real space sum over 605 unit cells with max indices [  5  5  2  ]
Reciprocal space sum over 6929 terms with max indices [  6  6  20  ]

Computing DFT-D3 correction:
# coordination-number C 3.292 3.319 3.329 3.322 3.302 3.275 3.271 3.415 3.318 3.297 3.289 3.252 3.294 3.293 3.313 3.404 3.259 3.293 3.308 3.330 3.323 3.293 3.295 3.323 3.324 3.304 3.290 3.244 3.392 3.306 3.287 3.295 3.258 3.291 3.304 3.326 3.406 3.255 3.281 3.305 3.325 3.329 3.311 3.292 3.214 3.219 3.222
# coordination-number N 3.138
# coordination-number Co 4.421
# diagonal-C6 C 24.35 24.09 23.99 24.06 24.27 24.51 24.54 22.90 24.10 24.31 24.39 24.69 24.34 24.35 24.15 23.06 24.64 24.35 24.20 23.97 24.05 24.35 24.33 24.05 24.04 24.24 24.38 24.75 23.22 24.22 24.40 24.33 24.64 24.37 24.25 24.01 23.03 24.67 24.46 24.23 24.03 23.99 24.18 24.36 24.95 24.91 24.90
# diagonal-C6 N 15.61
# diagonal-C6 Co 148.07
EvdW_6 =   -0.035187
EvdW_8 =   -0.028763

---------- Allocating electronic variables ----------
Initializing wave functions:  linear combination of atomic orbitals
C pseudo-atom occupations:   s ( 2 )  p ( 2 )
N pseudo-atom occupations:   s ( 2 )  p ( 3 )
Co pseudo-atom occupations:   s ( 2 0 )  p ( 6 0 )  d ( 9 )
	FillingsUpdate:  mu: -0.171300000  nElectrons: 210.000000  magneticMoment: [ Abs: 0.98792  Tot: +0.98029 ]
LCAOMinimize: Iter:   0  G: -312.8976669310702619  |grad|_K:  2.727e-02  alpha:  1.000e+00
LCAOMinimize: 	Step increased G by 2.448351e+01, reducing alpha to 3.185942e-02.
	FillingsUpdate:  mu: -0.171300000  nElectrons: 210.000000  magneticMoment: [ Abs: 0.84139  Tot: +0.81669 ]
LCAOMinimize: Iter:   1  G: -334.5024209274740770  |grad|_K:  1.390e-02  alpha:  3.186e-02  linmin: -9.612e-02  cgtest:  1.450e+00  t[s]:     36.52
LCAOMinimize: Encountered beta<0, resetting CG.
LCAOMinimize: 	Predicted alpha/alphaT>3.000000, increasing alphaT to 9.557827e-02.
LCAOMinimize: 	Wrong curvature in test step, increasing alphaT to 2.867348e-01.
	FillingsUpdate:  mu: -0.171300000  nElectrons: 210.000000  magneticMoment: [ Abs: 1.20163  Tot: +1.18449 ]
LCAOMinimize: Iter:   2  G: -363.3455438539756415  |grad|_K:  8.922e-03  alpha: -3.188e-01  linmin: -7.842e-02  cgtest:  7.171e-01  t[s]:     39.92
LCAOMinimize: Encountered beta<0, resetting CG.
	FillingsUpdate:  mu: -0.171300000  nElectrons: 210.000000  magneticMoment: [ Abs: 0.93345  Tot: +0.91328 ]
LCAOMinimize: Iter:   3  G: -378.2544392383180138  |grad|_K:  3.557e-03  alpha:  1.069e-01  linmin: -7.589e-02  cgtest:  5.750e-01  t[s]:     42.53
LCAOMinimize: Encountered beta<0, resetting CG.
LCAOMinimize: 	Predicted alpha/alphaT>3.000000, increasing alphaT to 3.208131e-01.
LCAOMinimize: 	Predicted alpha/alphaT>3.000000, increasing alphaT to 9.624392e-01.
	FillingsUpdate:  mu: -0.171300000  nElectrons: 210.000000  magneticMoment: [ Abs: 0.89675  Tot: +0.87771 ]
LCAOMinimize: Iter:   4  G: -379.0793927663096383  |grad|_K:  3.076e-03  alpha:  5.161e-02  linmin: -5.093e-02  cgtest:  9.749e-01  t[s]:     46.55
LCAOMinimize: Encountered beta<0, resetting CG.
LCAOMinimize: 	Predicted alpha/alphaT>3.000000, increasing alphaT to 1.548376e-01.
LCAOMinimize: 	Wrong curvature in test step, increasing alphaT to 4.645128e-01.
	FillingsUpdate:  mu: -0.171300000  nElectrons: 210.000000  magneticMoment: [ Abs: 0.49595  Tot: +0.47420 ]
LCAOMinimize: Iter:   5  G: -381.7106258262451206  |grad|_K:  3.443e-03  alpha: -2.397e-01  linmin: -3.682e-02  cgtest:  3.690e-01  t[s]:     49.85
	FillingsUpdate:  mu: -0.171300000  nElectrons: 210.000000  magneticMoment: [ Abs: 0.25108  Tot: +0.21230 ]
LCAOMinimize: Iter:   6  G: -383.7959953525514720  |grad|_K:  2.083e-03  alpha:  8.756e-02  linmin: -6.865e-02  cgtest:  1.012e+00  t[s]:     52.54
LCAOMinimize: Encountered beta<0, resetting CG.
LCAOMinimize: 	Predicted alpha/alphaT>3.000000, increasing alphaT to 2.626826e-01.
LCAOMinimize: 	Wrong curvature in test step, increasing alphaT to 7.880479e-01.
	FillingsUpdate:  mu: -0.171300000  nElectrons: 210.000000  magneticMoment: [ Abs: 0.17845  Tot: +0.11734 ]
LCAOMinimize: Iter:   7  G: -385.8451204637991054  |grad|_K:  2.732e-03  alpha: -4.050e-01  linmin: -2.050e-01  cgtest:  2.758e-01  t[s]:     55.78
LCAOMinimize: 	Step increased G by 1.575833e+01, reducing alpha to 1.108343e-02.
	FillingsUpdate:  mu: -0.171300000  nElectrons: 210.000000  magneticMoment: [ Abs: 0.18317  Tot: +0.12282 ]
LCAOMinimize: Iter:   8  G: -386.2672961494213268  |grad|_K:  2.990e-03  alpha:  1.108e-02  linmin: -1.885e-01  cgtest:  8.058e-01  t[s]:     60.47
LCAOMinimize: 	Wrong curvature in test step, increasing alphaT to 3.325029e-02.
	FillingsUpdate:  mu: -0.171300000  nElectrons: 210.000000  magneticMoment: [ Abs: 0.21250  Tot: +0.16086 ]
LCAOMinimize: Iter:   9  G: -386.5875627625825928  |grad|_K:  3.174e-03  alpha: -5.035e-02  linmin: -1.980e-01  cgtest:  8.418e-01  t[s]:     63.00
LCAOMinimize: 	Step increased G by 1.316960e+01, reducing alpha to 9.778831e-03.
	FillingsUpdate:  mu: -0.171300000  nElectrons: 210.000000  magneticMoment: [ Abs: 0.24484  Tot: +0.20790 ]
LCAOMinimize: Iter:  10  G: -386.8190394403816867  |grad|_K:  3.378e-03  alpha:  9.779e-03  linmin: -1.797e-01  cgtest:  8.554e-01  t[s]:     67.75
LCAOMinimize: 	Wrong curvature in test step, increasing alphaT to 2.933649e-02.
	FillingsUpdate:  mu: -0.171300000  nElectrons: 210.000000  magneticMoment: [ Abs: 0.27306  Tot: +0.24673 ]
LCAOMinimize: Iter:  11  G: -387.0594271586716104  |grad|_K:  3.689e-03  alpha: -3.290e-02  linmin: -1.942e-01  cgtest:  8.184e-01  t[s]:     70.35
LCAOMinimize: 	Step increased G by 1.662656e+01, reducing alpha to 2.115558e-02.
	FillingsUpdate:  mu: -0.171300000  nElectrons: 210.000000  magneticMoment: [ Abs: 0.42619  Tot: +0.41234 ]
LCAOMinimize: Iter:  12  G: -387.9482785089059007  |grad|_K:  2.239e-03  alpha:  2.116e-02  linmin: -1.506e-01  cgtest:  5.471e-01  t[s]:     75.04
	FillingsUpdate:  mu: -0.171300000  nElectrons: 210.000000  magneticMoment: [ Abs: 0.31553  Tot: +0.29633 ]
LCAOMinimize: Iter:  13  G: -388.0426932791794457  |grad|_K:  7.170e-04  alpha:  2.358e-02  linmin: -6.290e-03  cgtest:  5.510e-02  t[s]:     77.65
LCAOMinimize: 	Predicted alpha/alphaT>3.000000, increasing alphaT to 7.073932e-02.
LCAOMinimize: 	Predicted alpha/alphaT>3.000000, increasing alphaT to 2.122180e-01.
	FillingsUpdate:  mu: -0.171300000  nElectrons: 210.000000  magneticMoment: [ Abs: 0.76266  Tot: +0.75240 ]
LCAOMinimize: Iter:  14  G: -388.1220507244485134  |grad|_K:  6.400e-04  alpha:  2.233e-01  linmin:  8.258e-05  cgtest:  2.508e-01  t[s]:     81.66
	FillingsUpdate:  mu: -0.171300000  nElectrons: 210.000000  magneticMoment: [ Abs: 1.06394  Tot: +1.05528 ]
LCAOMinimize: Iter:  15  G: -388.1280793453963724  |grad|_K:  7.260e-04  alpha:  5.982e-02  linmin:  1.836e-02  cgtest: -3.565e-01  t[s]:     84.34
	FillingsUpdate:  mu: -0.171300000  nElectrons: 210.000000  magneticMoment: [ Abs: 1.31648  Tot: +1.31034 ]
LCAOMinimize: Iter:  16  G: -388.1352311490537659  |grad|_K:  4.945e-04  alpha:  6.457e-02  linmin: -1.500e-04  cgtest:  1.012e+00  t[s]:     87.13
LCAOMinimize: Encountered beta<0, resetting CG.
	FillingsUpdate:  mu: -0.171300000  nElectrons: 210.000000  magneticMoment: [ Abs: 1.50548  Tot: +1.49972 ]
LCAOMinimize: Iter:  17  G: -388.1431261805955728  |grad|_K:  3.023e-04  alpha:  5.168e-02  linmin: -1.067e-02  cgtest:  1.488e-01  t[s]:     89.82
	FillingsUpdate:  mu: -0.171300000  nElectrons: 210.000000  magneticMoment: [ Abs: 1.63452  Tot: +1.62637 ]
LCAOMinimize: Iter:  18  G: -388.1524628363271745  |grad|_K:  1.882e-04  alpha:  1.447e-01  linmin: -2.717e-03  cgtest: -1.755e-01  t[s]:     92.55
	FillingsUpdate:  mu: -0.171300000  nElectrons: 210.000000  magneticMoment: [ Abs: 1.76646  Tot: +1.74325 ]
LCAOMinimize: Iter:  19  G: -388.1553291116733817  |grad|_K:  1.089e-04  alpha:  1.210e-01  linmin: -1.300e-03  cgtest:  1.329e-01  t[s]:     95.15
LCAOMinimize: 	Predicted alpha/alphaT>3.000000, increasing alphaT to 3.631296e-01.
	FillingsUpdate:  mu: -0.171300000  nElectrons: 210.000000  magneticMoment: [ Abs: 2.05432  Tot: +1.93630 ]
LCAOMinimize: Iter:  20  G: -388.1593245657464877  |grad|_K:  5.868e-05  alpha:  4.642e-01  linmin: -5.130e-02  cgtest:  6.374e-01  t[s]:     98.45
LCAOMinimize: Encountered beta<0, resetting CG.
	FillingsUpdate:  mu: -0.171300000  nElectrons: 210.000000  magneticMoment: [ Abs: 2.10262  Tot: +1.96011 ]
LCAOMinimize: Iter:  21  G: -388.1597166967310386  |grad|_K:  6.089e-05  alpha:  1.488e-01  linmin: -1.582e-02  cgtest:  1.511e-01  t[s]:    101.13
	FillingsUpdate:  mu: -0.171300000  nElectrons: 210.000000  magneticMoment: [ Abs: 2.19749  Tot: +1.97436 ]
LCAOMinimize: Iter:  22  G: -388.1604388427128924  |grad|_K:  4.493e-05  alpha:  2.831e-01  linmin:  1.336e-02  cgtest: -4.760e-01  t[s]:    103.88
LCAOMinimize: 	Wrong curvature in test step, increasing alphaT to 8.492842e-01.
	FillingsUpdate:  mu: -0.171300000  nElectrons: 210.000000  magneticMoment: [ Abs: 2.34719  Tot: +1.98805 ]
LCAOMinimize: Iter:  23  G: -388.1611495680502344  |grad|_K:  5.981e-05  alpha: -2.484e+00  linmin:  4.290e-02  cgtest: -2.064e-01  t[s]:    106.46
LCAOMinimize: 	Step increased G by 4.975545e-04, reducing alpha to 1.077111e-02.
	FillingsUpdate:  mu: -0.171300000  nElectrons: 210.000000  magneticMoment: [ Abs: 2.35830  Tot: +1.98819 ]
LCAOMinimize: Iter:  24  G: -388.1612276611284642  |grad|_K:  5.833e-05  alpha:  1.077e-02  linmin: -2.109e-02  cgtest:  1.001e+00  t[s]:    111.20
LCAOMinimize: Encountered beta<0, resetting CG.
LCAOMinimize: 	Predicted alpha/alphaT>3.000000, increasing alphaT to 3.231332e-02.
LCAOMinimize: 	Predicted alpha/alphaT>3.000000, increasing alphaT to 9.693997e-02.
	FillingsUpdate:  mu: -0.171300000  nElectrons: 210.000000  magneticMoment: [ Abs: 2.35074  Tot: +1.98294 ]
LCAOMinimize: Iter:  25  G: -388.1614468683355881  |grad|_K:  3.210e-05  alpha:  9.498e-02  linmin: -8.210e-03  cgtest: -1.116e-02  t[s]:    115.22
	FillingsUpdate:  mu: -0.171300000  nElectrons: 210.000000  magneticMoment: [ Abs: 2.37747  Tot: +1.98452 ]
LCAOMinimize: Iter:  26  G: -388.1615813044148240  |grad|_K:  8.400e-06  alpha:  2.601e-01  linmin:  1.117e-01  cgtest: -6.056e-01  t[s]:    117.83
	FillingsUpdate:  mu: -0.171300000  nElectrons: 210.000000  magneticMoment: [ Abs: 2.39858  Tot: +1.98254 ]
LCAOMinimize: Iter:  27  G: -388.1615880896381441  |grad|_K:  1.275e-05  alpha:  3.430e-01  linmin:  5.802e-02  cgtest:  1.082e-01  t[s]:    120.56
	FillingsUpdate:  mu: -0.171300000  nElectrons: 210.000000  magneticMoment: [ Abs: 2.42358  Tot: +1.98219 ]
LCAOMinimize: Iter:  28  G: -388.1615898286605670  |grad|_K:  9.270e-06  alpha:  1.226e-01  linmin: -5.605e-02  cgtest:  8.151e-01  t[s]:    123.17
LCAOMinimize: Encountered beta<0, resetting CG.
LCAOMinimize: 	Predicted alpha/alphaT>3.000000, increasing alphaT to 3.679167e-01.
	FillingsUpdate:  mu: -0.171300000  nElectrons: 210.000000  magneticMoment: [ Abs: 2.43509  Tot: +1.98268 ]
LCAOMinimize: Iter:  29  G: -388.1616075463816173  |grad|_K:  8.704e-06  alpha:  2.924e-01  linmin:  2.627e-02  cgtest: -1.477e-01  t[s]:    126.47
LCAOMinimize: 	Step increased G by 1.798398e-04, reducing alpha to 7.376058e-02.
	FillingsUpdate:  mu: -0.171300000  nElectrons: 210.000000  magneticMoment: [ Abs: 2.43817  Tot: +1.98197 ]
LCAOMinimize: Iter:  30  G: -388.1616247702112901  |grad|_K:  3.345e-06  alpha:  7.376e-02  linmin: -2.573e-02  cgtest:  7.332e-01  t[s]:    131.19
LCAOMinimize: Encountered beta<0, resetting CG.
LCAOMinimize: None of the convergence criteria satisfied after 30 iterations.
----- createFluidSolver() ----- (Fluid-side solver setup)
   Initializing fluid molecule 'H2O'
     Initializing site 'O'
       Electron density: proportional to exp(-r/0.36935)*erfc((r-0.51523)/0.36823) with norm 6.826
       Charge density: gaussian nuclear width 0.478731 with net site charge 0.826
       Polarizability: cuspless exponential with width 0.32 and norm 3.73
       Hard sphere radius: 2.57003 bohrs
       Positions in reference frame:
         [ +0.000000 +0.000000 +0.000000 ]
     Initializing site 'H'
       Electron density: proportional to exp(-r/0.34641)*erfc((r-0)/0.390882) with norm 0.587
       Charge density: gaussian nuclear width 0.377945 with net site charge -0.413
       Polarizability: cuspless exponential with width 0.39 and norm 3.3
       Positions in reference frame:
         [ +0.000000 -1.441945 +1.122523 ]
         [ +0.000000 +1.441945 +1.122523 ]
     Net charge: 0   dipole magnitude: 0.927204
     Initializing spherical shell mfKernel with radius 2.61727 Bohr
     deltaS corrections:
       site 'O': -7.54299
       site 'H': -6.83917
   Initializing fluid molecule 'Na+'
     Initializing site 'Na'
       Electron density: proportional to exp(-r/0.19682)*erfc((r-0.71491)/0.41314) with norm 8.1383
       Charge density: gaussian nuclear width 0.365347 with net site charge -1
       Hard sphere radius: 1.86327 bohrs
       Positions in reference frame:
         [ +0.000000 +0.000000 +0.000000 ]
     Net charge: -1   dipole magnitude: 0
     Initializing gaussian mfKernel with width: 1.55004 Bohr
     deltaS corrections:
       site 'Na': -22.3555
   Initializing fluid molecule 'F-'
     Initializing site 'F'
       Electron density: proportional to exp(-r/0.38886)*erfc((r-0)/0.438782) with norm 8
       Charge density: gaussian nuclear width 0.374796 with net site charge 1
       Hard sphere radius: 2.39995 bohrs
       Positions in reference frame:
         [ +0.000000 +0.000000 +0.000000 ]
     Net charge: 1   dipole magnitude: 0
     Initializing gaussian mfKernel with width: 1.59012 Bohr
     deltaS corrections:
       site 'F': -9.04335

Correction to mu due to finite nuclear width = -0.00510586
   Cavity determined by nc: 0.00142 and sigma: 0.707107
   Nonlocal vdW cavity from gaussian model electron density with norm = 8 and sigma = 0.993594 bohr
   Charge asymmetry in cavity with sensitivity pCavity = 36.5 e-bohr/Eh
   Electrostatic cavity expanded by eta = 1.46 bohrs
   Weighted density cavitation model constrained by Nbulk: 0.0049383 bohr^-3, Pvap: 3.14029 kPa, Rvdw: 2.61727 bohr and sigmaBulk: 4.62e-05 Eh/bohr^2 at T: 298 K.
   Weighted density dispersion model using vdW pair potentials with single solvent site with sqrtC6eff: 0.77 SI.


---- Citations for features of the code used in this run ----

   Software package:
      R. Sundararaman, K. Letchworth-Weaver, K.A. Schwarz, D. Gunceler, Y. Ozhabes and T.A. Arias, 'JDFTx: software for joint density-functional theory', SoftwareX 6, 278 (2017)

   gga-PBE exchange-correlation functional:
      J.P. Perdew, K. Burke and M. Ernzerhof, Phys. Rev. Lett. 77, 3865 (1996)

   Pseudopotentials:
      KF Garrity, JW Bennett, KM Rabe and D Vanderbilt, Comput. Mater. Sci. 81, 446 (2014)

   Truncated Coulomb potentials:
      R. Sundararaman and T.A. Arias, Phys. Rev. B 87, 165122 (2013)

   DFT-D3 dispersion correction:
      S. Grimme, J. Antony, S. Ehrlich and H. Krieg, J. Chem. Phys. 132, 154104 (2010)

   DFT-D2 dispersion correction:
      S. Grimme, J. Comput. Chem. 27, 1787 (2006)

   Charge-asymmetric nonlocally-determined local-electric (CANDLE) solvation model:
      R. Sundararaman and W.A. Goddard III, J. Chem. Phys. 142, 064107 (2015)

   Total energy minimization with Auxiliary Hamiltonian:
      C. Freysoldt, S. Boeck, and J. Neugebauer, Phys. Rev. B 79, 241103(R) (2009)

   Grand-canonical (fixed-potential) DFT:
      R. Sundararaman, W. A. Goddard III and T. A. Arias, J. Chem. Phys. 146, 114104 (2017)

   Linear-tetrahedron sampling for density of states:
      G. Lehmann and M. Taut, Phys. status solidi (b) 54, 469 (1972)

   Smooth electrostatic potentials by atom-potential subtraction:
      R. Sundararaman and Y. Ping, J. Chem. Phys. 146, 104109 (2017)

This list may not be complete. Please suggest additional citations or
report any other bugs at https://github.com/shankar1729/jdftx/issues

Initialization completed successfully at t[s]:    131.59


Computing DFT-D3 correction:
# coordination-number C 3.292 3.319 3.329 3.322 3.302 3.275 3.271 3.415 3.318 3.297 3.289 3.252 3.294 3.293 3.313 3.404 3.259 3.293 3.308 3.330 3.323 3.293 3.295 3.323 3.324 3.304 3.290 3.244 3.392 3.306 3.287 3.295 3.258 3.291 3.304 3.326 3.406 3.255 3.281 3.305 3.325 3.329 3.311 3.292 3.214 3.219 3.222
# coordination-number N 3.138
# coordination-number Co 4.421
# diagonal-C6 C 24.35 24.09 23.99 24.06 24.27 24.51 24.54 22.90 24.10 24.31 24.39 24.69 24.34 24.35 24.15 23.06 24.64 24.35 24.20 23.97 24.05 24.35 24.33 24.05 24.04 24.24 24.38 24.75 23.22 24.22 24.40 24.33 24.64 24.37 24.25 24.01 23.03 24.67 24.46 24.23 24.03 23.99 24.18 24.36 24.95 24.91 24.90
# diagonal-C6 N 15.61
# diagonal-C6 Co 148.07
EvdW_6 =   -0.035187
EvdW_8 =   -0.028763
Fluid solver invoked on fresh (random / LCAO) wavefunctions
Running a vacuum solve first:

-------- Initial electronic minimization -----------
	FillingsUpdate:  mu: -0.272578723  nElectrons: 210.000000  magneticMoment: [ Abs: 2.43817  Tot: +1.98197 ]
ElecMinimize: Iter:   0  G: -388.160664989284953  |grad|_K:  1.043e-04  alpha:  1.000e+00
	FillingsUpdate:  mu: -0.173212284  nElectrons: 210.000000  magneticMoment: [ Abs: 2.46581  Tot: +1.98009 ]
	SubspaceRotationAdjust: set factor to 1
ElecMinimize: Iter:   1  G: -390.778167458021187  |grad|_K:  3.693e-05  alpha:  6.938e-01  linmin: -7.833e-07  t[s]:    136.82
	FillingsUpdate:  mu: -0.120305394  nElectrons: 210.000000  magneticMoment: [ Abs: 2.32696  Tot: +1.92390 ]
	SubspaceRotationAdjust: set factor to 0.754
ElecMinimize: Iter:   2  G: -390.840576623495906  |grad|_K:  2.532e-05  alpha:  1.069e-01  linmin: -1.293e-03  t[s]:    139.66
ElecMinimize: 	Predicted alpha/alphaT>3.000000, increasing alphaT to 3.205550e-01.
	FillingsUpdate:  mu: -0.078710350  nElectrons: 210.000000  magneticMoment: [ Abs: 2.13705  Tot: +1.73566 ]
	SubspaceRotationAdjust: set factor to 0.474
ElecMinimize: Iter:   3  G: -390.958610400210262  |grad|_K:  3.297e-05  alpha:  4.250e-01  linmin:  1.382e-04  t[s]:    143.22
	FillingsUpdate:  mu: -0.118636143  nElectrons: 210.000000  magneticMoment: [ Abs: 2.28968  Tot: +1.89727 ]
	SubspaceRotationAdjust: set factor to 0.908
ElecMinimize: Iter:   4  G: -390.980678778480581  |grad|_K:  1.324e-05  alpha:  4.939e-02  linmin: -4.315e-04  t[s]:    146.05
	FillingsUpdate:  mu: -0.159770213  nElectrons: 210.000000  magneticMoment: [ Abs: 2.36380  Tot: +1.95890 ]
	SubspaceRotationAdjust: set factor to 0.855
ElecMinimize: Iter:   5  G: -390.991435517270872  |grad|_K:  1.219e-05  alpha:  1.253e-01  linmin: -6.411e-04  t[s]:    148.76
	FillingsUpdate:  mu: -0.147466008  nElectrons: 210.000000  magneticMoment: [ Abs: 2.35100  Tot: +1.95437 ]
	SubspaceRotationAdjust: set factor to 0.881
ElecMinimize: Iter:   6  G: -391.010384947359398  |grad|_K:  8.186e-06  alpha:  2.705e-01  linmin:  8.841e-06  t[s]:    151.44
	FillingsUpdate:  mu: -0.124020653  nElectrons: 210.000000  magneticMoment: [ Abs: 2.29821  Tot: +1.90963 ]
	SubspaceRotationAdjust: set factor to 0.799
ElecMinimize: Iter:   7  G: -391.016139290128820  |grad|_K:  8.188e-06  alpha:  2.420e-01  linmin:  1.003e-04  t[s]:    154.14
	FillingsUpdate:  mu: -0.143596270  nElectrons: 210.000000  magneticMoment: [ Abs: 2.32694  Tot: +1.93664 ]
	SubspaceRotationAdjust: set factor to 0.632
ElecMinimize: Iter:   8  G: -391.018402728613523  |grad|_K:  4.837e-06  alpha:  1.057e-01  linmin:  7.330e-05  t[s]:    156.94
ElecMinimize: 	Predicted alpha/alphaT>3.000000, increasing alphaT to 3.170016e-01.
	FillingsUpdate:  mu: -0.138891622  nElectrons: 210.000000  magneticMoment: [ Abs: 2.29928  Tot: +1.91282 ]
	SubspaceRotationAdjust: set factor to 0.64
ElecMinimize: Iter:   9  G: -391.021301120738315  |grad|_K:  3.808e-06  alpha:  3.625e-01  linmin:  2.265e-05  t[s]:    160.58
	FillingsUpdate:  mu: -0.130734716  nElectrons: 210.000000  magneticMoment: [ Abs: 2.27193  Tot: +1.88728 ]
	SubspaceRotationAdjust: set factor to 0.433
ElecMinimize: Iter:  10  G: -391.022182416074656  |grad|_K:  3.741e-06  alpha:  1.664e-01  linmin: -5.099e-04  t[s]:    163.35
	FillingsUpdate:  mu: -0.136256956  nElectrons: 210.000000  magneticMoment: [ Abs: 2.29598  Tot: +1.91533 ]
	SubspaceRotationAdjust: set factor to 0.609
ElecMinimize: Iter:  11  G: -391.023011111719768  |grad|_K:  1.632e-06  alpha:  1.644e-01  linmin: -1.787e-04  t[s]:    166.17
	FillingsUpdate:  mu: -0.141055440  nElectrons: 210.000000  magneticMoment: [ Abs: 2.30305  Tot: +1.92396 ]
	SubspaceRotationAdjust: set factor to 0.588
ElecMinimize: Iter:  12  G: -391.023255143679876  |grad|_K:  1.517e-06  alpha:  2.548e-01  linmin: -4.571e-05  t[s]:    169.01
	FillingsUpdate:  mu: -0.136134050  nElectrons: 210.000000  magneticMoment: [ Abs: 2.28898  Tot: +1.91184 ]
	SubspaceRotationAdjust: set factor to 0.448
ElecMinimize: Iter:  13  G: -391.023398893910723  |grad|_K:  1.271e-06  alpha:  1.733e-01  linmin:  1.489e-06  t[s]:    171.85
	FillingsUpdate:  mu: -0.136409795  nElectrons: 210.000000  magneticMoment: [ Abs: 2.28299  Tot: +1.90805 ]
	SubspaceRotationAdjust: set factor to 0.643
ElecMinimize: Iter:  14  G: -391.023551272929410  |grad|_K:  6.792e-07  alpha:  2.684e-01  linmin:  3.664e-07  t[s]:    174.64
	FillingsUpdate:  mu: -0.138479428  nElectrons: 210.000000  magneticMoment: [ Abs: 2.28660  Tot: +1.91266 ]
	SubspaceRotationAdjust: set factor to 0.559
ElecMinimize: Iter:  15  G: -391.023597800507503  |grad|_K:  7.865e-07  alpha:  2.867e-01  linmin: -6.588e-06  t[s]:    177.43
	FillingsUpdate:  mu: -0.136562166  nElectrons: 210.000000  magneticMoment: [ Abs: 2.28106  Tot: +1.90818 ]
	SubspaceRotationAdjust: set factor to 0.398
ElecMinimize: Iter:  16  G: -391.023633593691670  |grad|_K:  4.514e-07  alpha:  1.631e-01  linmin: -3.132e-06  t[s]:    180.16
	FillingsUpdate:  mu: -0.137014157  nElectrons: 210.000000  magneticMoment: [ Abs: 2.28131  Tot: +1.90951 ]
	SubspaceRotationAdjust: set factor to 0.414
ElecMinimize: Iter:  17  G: -391.023656536593364  |grad|_K:  3.455e-07  alpha:  3.197e-01  linmin: -3.141e-07  t[s]:    182.85
	FillingsUpdate:  mu: -0.137635722  nElectrons: 210.000000  magneticMoment: [ Abs: 2.28048  Tot: +1.90983 ]
	SubspaceRotationAdjust: set factor to 0.43
ElecMinimize: Iter:  18  G: -391.023673642694291  |grad|_K:  2.744e-07  alpha:  4.074e-01  linmin:  3.862e-07  t[s]:    185.62
	FillingsUpdate:  mu: -0.136834521  nElectrons: 210.000000  magneticMoment: [ Abs: 2.27722  Tot: +1.90703 ]
	SubspaceRotationAdjust: set factor to 0.33
ElecMinimize: Iter:  19  G: -391.023679230059770  |grad|_K:  2.257e-07  alpha:  2.094e-01  linmin: -1.098e-05  t[s]:    188.45
	FillingsUpdate:  mu: -0.137165601  nElectrons: 210.000000  magneticMoment: [ Abs: 2.27618  Tot: +1.90655 ]
	SubspaceRotationAdjust: set factor to 0.34
ElecMinimize: Iter:  20  G: -391.023684928525768  |grad|_K:  1.580e-07  alpha:  3.171e-01  linmin:  9.839e-07  t[s]:    191.28
	FillingsUpdate:  mu: -0.137211090  nElectrons: 210.000000  magneticMoment: [ Abs: 2.27541  Tot: +1.90619 ]
	SubspaceRotationAdjust: set factor to 0.352
ElecMinimize: Iter:  21  G: -391.023688181591922  |grad|_K:  1.144e-07  alpha:  3.704e-01  linmin:  7.606e-07  t[s]:    194.02
	FillingsUpdate:  mu: -0.137054450  nElectrons: 210.000000  magneticMoment: [ Abs: 2.27456  Tot: +1.90566 ]
	SubspaceRotationAdjust: set factor to 0.35
ElecMinimize: Iter:  22  G: -391.023689837703557  |grad|_K:  1.001e-07  alpha:  3.599e-01  linmin:  6.181e-07  t[s]:    196.85
	FillingsUpdate:  mu: -0.137329042  nElectrons: 210.000000  magneticMoment: [ Abs: 2.27466  Tot: +1.90600 ]
	SubspaceRotationAdjust: set factor to 0.285
ElecMinimize: Iter:  23  G: -391.023690770494738  |grad|_K:  8.254e-08  alpha:  2.647e-01  linmin:  1.301e-07  t[s]:    199.76
	FillingsUpdate:  mu: -0.137164300  nElectrons: 210.000000  magneticMoment: [ Abs: 2.27355  Tot: +1.90512 ]
	SubspaceRotationAdjust: set factor to 0.282
ElecMinimize: Iter:  24  G: -391.023691521418243  |grad|_K:  5.556e-08  alpha:  3.134e-01  linmin:  1.759e-06  t[s]:    202.47
	FillingsUpdate:  mu: -0.137129167  nElectrons: 210.000000  magneticMoment: [ Abs: 2.27282  Tot: +1.90458 ]
	SubspaceRotationAdjust: set factor to 0.298
ElecMinimize: Iter:  25  G: -391.023691976005409  |grad|_K:  4.352e-08  alpha:  4.192e-01  linmin:  5.872e-07  t[s]:    205.25
	FillingsUpdate:  mu: -0.137234680  nElectrons: 210.000000  magneticMoment: [ Abs: 2.27270  Tot: +1.90461 ]
	SubspaceRotationAdjust: set factor to 0.272
ElecMinimize: Iter:  26  G: -391.023692207715783  |grad|_K:  3.761e-08  alpha:  3.480e-01  linmin:  6.600e-08  t[s]:    208.09
	FillingsUpdate:  mu: -0.137160409  nElectrons: 210.000000  magneticMoment: [ Abs: 2.27229  Tot: +1.90432 ]
	SubspaceRotationAdjust: set factor to 0.252
ElecMinimize: Iter:  27  G: -391.023692357849484  |grad|_K:  2.966e-08  alpha:  3.017e-01  linmin:  1.615e-07  t[s]:    210.94
	FillingsUpdate:  mu: -0.137200132  nElectrons: 210.000000  magneticMoment: [ Abs: 2.27211  Tot: +1.90425 ]
	SubspaceRotationAdjust: set factor to 0.25
ElecMinimize: Iter:  28  G: -391.023692469922480  |grad|_K:  2.332e-08  alpha:  3.621e-01  linmin:  2.569e-08  t[s]:    213.69
	FillingsUpdate:  mu: -0.137203644  nElectrons: 210.000000  magneticMoment: [ Abs: 2.27183  Tot: +1.90406 ]
	SubspaceRotationAdjust: set factor to 0.272
ElecMinimize: Iter:  29  G: -391.023692550250928  |grad|_K:  1.764e-08  alpha:  4.199e-01  linmin:  1.258e-08  t[s]:    216.53
	FillingsUpdate:  mu: -0.137154351  nElectrons: 210.000000  magneticMoment: [ Abs: 2.27156  Tot: +1.90385 ]
	SubspaceRotationAdjust: set factor to 0.251
ElecMinimize: Iter:  30  G: -391.023692586624179  |grad|_K:  1.656e-08  alpha:  3.322e-01  linmin:  1.019e-07  t[s]:    219.36
ElecMinimize: Converged (|Delta G|<1.000000e-07 for 2 iters).
Setting wave functions to eigenvectors of Hamiltonian
Converging empty states (this may take a while): |deigs|: 1.191e-02
Vacuum energy after initial minimize, F = -391.023692586624179

Shifting auxilliary hamiltonian by -0.034146 to set nElectrons=210.000000

-------- Electronic minimization -----------
	Linear fluid (dielectric constant: 78.4, screening length: 8.12261 Bohr) occupying 0.873845 of unit cell:	Completed after 19 iterations at t[s]:    240.86
	FillingsUpdate:  mu: -0.171300000  nElectrons: 210.000000  magneticMoment: [ Abs: 2.27317  Tot: +1.90555 ]
ElecMinimize: Iter:   0  G: -391.018884690676430  |grad|_K:  1.517e-06  alpha:  1.000e+00
	Linear fluid (dielectric constant: 78.4, screening length: 8.12261 Bohr) occupying 0.874093 of unit cell:	Completed after 15 iterations at t[s]:    243.07
	Linear fluid (dielectric constant: 78.4, screening length: 8.12261 Bohr) occupying 0.874091 of unit cell:	Completed after 0 iterations at t[s]:    243.86
	FillingsUpdate:  mu: -0.171300000  nElectrons: 209.881315  magneticMoment: [ Abs: 2.25698  Tot: +1.86547 ]
	SubspaceRotationAdjust: set factor to 0.231
ElecMinimize: Iter:   1  G: -391.019682677605829  |grad|_K:  1.525e-06  alpha:  9.897e-01  linmin: -1.088e-03  t[s]:    245.11
	Linear fluid (dielectric constant: 78.4, screening length: 8.12261 Bohr) occupying 0.874471 of unit cell:	Completed after 12 iterations at t[s]:    245.89
	Linear fluid (dielectric constant: 78.4, screening length: 8.12261 Bohr) occupying 0.874188 of unit cell:	Completed after 10 iterations at t[s]:    246.72
	FillingsUpdate:  mu: -0.171300000  nElectrons: 209.858637  magneticMoment: [ Abs: 2.23961  Tot: +1.84390 ]
	SubspaceRotationAdjust: set factor to 0.214
ElecMinimize: Iter:   2  G: -391.019924581066221  |grad|_K:  1.126e-06  alpha:  2.479e-01  linmin:  4.510e-06  t[s]:    247.98
	Linear fluid (dielectric constant: 78.4, screening length: 8.12261 Bohr) occupying 0.874266 of unit cell:	Completed after 5 iterations at t[s]:    248.72
	Linear fluid (dielectric constant: 78.4, screening length: 8.12261 Bohr) occupying 0.874339 of unit cell:	Completed after 8 iterations at t[s]:    249.55
	FillingsUpdate:  mu: -0.171300000  nElectrons: 209.829944  magneticMoment: [ Abs: 2.22156  Tot: +1.82130 ]
	SubspaceRotationAdjust: set factor to 0.284
ElecMinimize: Iter:   3  G: -391.020139359318705  |grad|_K:  5.616e-07  alpha:  4.813e-01  linmin: -3.401e-05  t[s]:    250.81
	Linear fluid (dielectric constant: 78.4, screening length: 8.12261 Bohr) occupying 0.874396 of unit cell:	Completed after 5 iterations at t[s]:    251.55
	Linear fluid (dielectric constant: 78.4, screening length: 8.12261 Bohr) occupying 0.874418 of unit cell:	Completed after 4 iterations at t[s]:    252.35
	FillingsUpdate:  mu: -0.171300000  nElectrons: 209.813659  magneticMoment: [ Abs: 2.21309  Tot: +1.81007 ]
	SubspaceRotationAdjust: set factor to 0.281
ElecMinimize: Iter:   4  G: -391.020215502913516  |grad|_K:  4.088e-07  alpha:  6.692e-01  linmin: -1.205e-04  t[s]:    253.61
	Linear fluid (dielectric constant: 78.4, screening length: 8.12261 Bohr) occupying 0.874471 of unit cell:	Completed after 3 iterations at t[s]:    254.35
	Linear fluid (dielectric constant: 78.4, screening length: 8.12261 Bohr) occupying 0.874439 of unit cell:	Completed after 3 iterations at t[s]:    255.16
	FillingsUpdate:  mu: -0.171300000  nElectrons: 209.808796  magneticMoment: [ Abs: 2.20863  Tot: +1.80597 ]
	SubspaceRotationAdjust: set factor to 0.303
ElecMinimize: Iter:   5  G: -391.020232294083883  |grad|_K:  2.877e-07  alpha:  2.747e-01  linmin:  3.696e-06  t[s]:    256.42
	Linear fluid (dielectric constant: 78.4, screening length: 8.12261 Bohr) occupying 0.874453 of unit cell:	Completed after 3 iterations at t[s]:    257.17
	Linear fluid (dielectric constant: 78.4, screening length: 8.12261 Bohr) occupying 0.874461 of unit cell:	Completed after 2 iterations at t[s]:    257.98
	FillingsUpdate:  mu: -0.171300000  nElectrons: 209.802169  magneticMoment: [ Abs: 2.20295  Tot: +1.80043 ]
	SubspaceRotationAdjust: set factor to 0.333
ElecMinimize: Iter:   6  G: -391.020245524128541  |grad|_K:  2.018e-07  alpha:  4.532e-01  linmin: -2.468e-05  t[s]:    259.23
	Linear fluid (dielectric constant: 78.4, screening length: 8.12261 Bohr) occupying 0.874474 of unit cell:	Completed after 3 iterations at t[s]:    259.98
	Linear fluid (dielectric constant: 78.4, screening length: 8.12261 Bohr) occupying 0.874473 of unit cell:	Completed after 0 iterations at t[s]:    260.78
	FillingsUpdate:  mu: -0.171300000  nElectrons: 209.798483  magneticMoment: [ Abs: 2.19814  Tot: +1.79710 ]
	SubspaceRotationAdjust: set factor to 0.377
ElecMinimize: Iter:   7  G: -391.020251460205145  |grad|_K:  1.557e-07  alpha:  4.088e-01  linmin:  1.258e-05  t[s]:    262.04
	Linear fluid (dielectric constant: 78.4, screening length: 8.12261 Bohr) occupying 0.874481 of unit cell:	Completed after 2 iterations at t[s]:    262.77
	Linear fluid (dielectric constant: 78.4, screening length: 8.12261 Bohr) occupying 0.874481 of unit cell:	Completed after 0 iterations at t[s]:    263.56
	FillingsUpdate:  mu: -0.171300000  nElectrons: 209.795603  magneticMoment: [ Abs: 2.19371  Tot: +1.79451 ]
	SubspaceRotationAdjust: set factor to 0.451
ElecMinimize: Iter:   8  G: -391.020255114186909  |grad|_K:  1.072e-07  alpha:  4.320e-01  linmin: -5.076e-05  t[s]:    264.82
	Linear fluid (dielectric constant: 78.4, screening length: 8.12261 Bohr) occupying 0.874485 of unit cell:	Completed after 2 iterations at t[s]:    265.55
	Linear fluid (dielectric constant: 78.4, screening length: 8.12261 Bohr) occupying 0.874485 of unit cell:	Completed after 0 iterations at t[s]:    266.35
	FillingsUpdate:  mu: -0.171300000  nElectrons: 209.794401  magneticMoment: [ Abs: 2.19025  Tot: +1.79336 ]
	SubspaceRotationAdjust: set factor to 0.506
ElecMinimize: Iter:   9  G: -391.020256889218615  |grad|_K:  8.947e-08  alpha:  4.227e-01  linmin: -5.348e-05  t[s]:    267.61
	Linear fluid (dielectric constant: 78.4, screening length: 8.12261 Bohr) occupying 0.874488 of unit cell:	Completed after 3 iterations at t[s]:    268.35
	Linear fluid (dielectric constant: 78.4, screening length: 8.12261 Bohr) occupying 0.874488 of unit cell:	Completed after 0 iterations at t[s]:    269.16
	FillingsUpdate:  mu: -0.171300000  nElectrons: 209.793811  magneticMoment: [ Abs: 2.18769  Tot: +1.79284 ]
	SubspaceRotationAdjust: set factor to 0.445
ElecMinimize: Iter:  10  G: -391.020257899021260  |grad|_K:  8.996e-08  alpha:  3.416e-01  linmin:  6.362e-05  t[s]:    270.42
	Linear fluid (dielectric constant: 78.4, screening length: 8.12261 Bohr) occupying 0.874490 of unit cell:	Completed after 2 iterations at t[s]:    271.16
	Linear fluid (dielectric constant: 78.4, screening length: 8.12261 Bohr) occupying 0.874489 of unit cell:	Completed after 0 iterations at t[s]:    271.96
	FillingsUpdate:  mu: -0.171300000  nElectrons: 209.793866  magneticMoment: [ Abs: 2.18496  Tot: +1.79282 ]
	SubspaceRotationAdjust: set factor to 0.364
ElecMinimize: Iter:  11  G: -391.020258534358163  |grad|_K:  5.895e-08  alpha:  2.487e-01  linmin:  4.734e-05  t[s]:    273.23
	Linear fluid (dielectric constant: 78.4, screening length: 8.12261 Bohr) occupying 0.874490 of unit cell:	Completed after 1 iterations at t[s]:    273.96
	Linear fluid (dielectric constant: 78.4, screening length: 8.12261 Bohr) occupying 0.874490 of unit cell:	Completed after 0 iterations at t[s]:    274.77
	FillingsUpdate:  mu: -0.171300000  nElectrons: 209.794073  magneticMoment: [ Abs: 2.18341  Tot: +1.79299 ]
	SubspaceRotationAdjust: set factor to 0.453
ElecMinimize: Iter:  12  G: -391.020258859762407  |grad|_K:  3.527e-08  alpha:  2.687e-01  linmin: -5.065e-04  t[s]:    276.04
	Linear fluid (dielectric constant: 78.4, screening length: 8.12261 Bohr) occupying 0.874490 of unit cell:	Completed after 0 iterations at t[s]:    276.77
	Linear fluid (dielectric constant: 78.4, screening length: 8.12261 Bohr) occupying 0.874490 of unit cell:	Completed after 2 iterations at t[s]:    277.62
	FillingsUpdate:  mu: -0.171300000  nElectrons: 209.794676  magneticMoment: [ Abs: 2.18158  Tot: +1.79351 ]
	SubspaceRotationAdjust: set factor to 0.48
ElecMinimize: Iter:  13  G: -391.020258929245756  |grad|_K:  6.417e-08  alpha:  5.667e-01  linmin:  6.965e-04  t[s]:    278.89
	Linear fluid (dielectric constant: 78.4, screening length: 8.12261 Bohr) occupying 0.874489 of unit cell:	Completed after 3 iterations at t[s]:    279.62
	Linear fluid (dielectric constant: 78.4, screening length: 8.12261 Bohr) occupying 0.874490 of unit cell:	Completed after 2 iterations at t[s]:    280.47
	FillingsUpdate:  mu: -0.171300000  nElectrons: 209.794996  magneticMoment: [ Abs: 2.18073  Tot: +1.79377 ]
	SubspaceRotationAdjust: set factor to 0.636
ElecMinimize: Iter:  14  G: -391.020258997825636  |grad|_K:  6.124e-08  alpha:  6.862e-02  linmin:  8.771e-05  t[s]:    281.72
ElecMinimize: Converged (|Delta G|<1.000000e-07 for 2 iters).
Setting wave functions to eigenvectors of Hamiltonian
Converging empty states (this may take a while): |deigs|: 4.739e-04
Single-point solvation energy estimate, DeltaG = +0.003433588798543

Computing DFT-D3 correction:
# coordination-number C 3.292 3.319 3.329 3.322 3.302 3.275 3.271 3.415 3.318 3.297 3.289 3.252 3.294 3.293 3.313 3.404 3.259 3.293 3.308 3.330 3.323 3.293 3.295 3.323 3.324 3.304 3.290 3.244 3.392 3.306 3.287 3.295 3.258 3.291 3.304 3.326 3.406 3.255 3.281 3.305 3.325 3.329 3.311 3.292 3.214 3.219 3.222
# coordination-number N 3.138
# coordination-number Co 4.421
# diagonal-C6 C 24.35 24.09 23.99 24.06 24.27 24.51 24.54 22.90 24.10 24.31 24.39 24.69 24.34 24.35 24.15 23.06 24.64 24.35 24.20 23.97 24.05 24.35 24.33 24.05 24.04 24.24 24.38 24.75 23.22 24.22 24.40 24.33 24.64 24.37 24.25 24.01 23.03 24.67 24.46 24.23 24.03 23.99 24.18 24.36 24.95 24.91 24.90
# diagonal-C6 N 15.61
# diagonal-C6 Co 148.07
EvdW_6 =   -0.035187
EvdW_8 =   -0.028763

# Ionic positions in cartesian coordinates:
ion C  -0.008701000000000   0.021739000000000   0.024861000000000 1
ion C  21.173293999999999   3.964839000000000   0.031641000000000 1
ion C  18.827735999999998   8.001033000000000   0.036964000000000 1
ion C  -7.059466000000000  12.029569000000000   0.035507000000000 1
ion C  -9.404055999999999  16.064700999999999   0.028255000000000 1
ion C   4.701526000000001   0.151171000000000   0.026339000000000 1
ion C   2.275380000000001   4.163178000000000   0.037965000000000 1
ion C  -0.165207999999999   7.941380999999999   0.044808000000000 1
ion C  -2.448258000000000  12.009665000000000   0.036941000000000 1
ion C  -4.729393000000000  16.065301999999999   0.029110000000000 1
ion C   9.435797999999998   0.036410000000000   0.026205000000000 1
ion C   7.121667999999999   4.149822000000000   0.034971000000000 1
ion C  -0.014685000000001  15.958780000000001   0.030978000000000 1
ion C   2.376721000000001  19.917404000000001   0.028381000000000 1
ion C  11.846905000000000   3.970796000000000   0.031445000000000 1
ion C   9.656216000000002   7.986193000000000   0.042314000000000 1
ion C   4.722306999999999  15.857877999999999   0.035782000000000 1
ion C   7.075536999999999  19.916278999999999   0.027816000000000 1
ion C  16.514410000000002   3.950052000000000   0.032965000000000 1
ion C  14.236091000000000   7.998512000000000   0.036939000000000 1
ion C  11.923795999999999  12.039118999999998   0.035454000000000 1
ion C   9.461217999999999  15.952233999999999   0.030004000000000 1
ion C  -0.034458000000000   2.708299999999999   0.029092000000000 1
ion C  -2.460471000000000   6.619802999999999   0.036078000000000 1
ion C  -4.762333000000000  10.670211999999999   0.037168000000000 1
ion C  -7.065206000000000  14.721447000000000   0.031240000000000 1
ion C  -9.417239000000000  18.745588000000001   0.025310000000000 1
ion C   4.705472000000000   2.851059999999999   0.032844000000000 1
ion C  -0.152447000000000  10.660361000000000   0.044472000000000 1
ion C  -2.395850000000000  14.692701000000000   0.032174000000000 1
ion C  -4.726491999999999  18.754768999999996   0.026046000000000 1
ion C   9.453098000000001   2.719993000000000   0.028794000000000 1
ion C   2.318848000000001  14.542008999999998   0.038799000000000 1
ion C  -0.002572999999999  18.642741000000001   0.027346000000000 1
ion C  14.173684000000000   2.608401000000000   0.030476000000000 1
ion C  11.931247000000001   6.641507000000000   0.035855000000000 1
ion C   9.645383000000002  10.685485999999997   0.043349000000000 1
ion C   7.119183999999998  14.523278999999999   0.038844000000000 1
ion C   4.725261999999998  18.543771000000000   0.029351000000000 1
ion C  18.844074999999997   2.601995000000000   0.030291000000000 1
ion C  16.530856999999997   6.641713000000000   0.036217000000000 1
ion C  14.232361000000001  10.684297999999998   0.036399000000000 1
ion C  11.854229999999999  14.710872000000000   0.030812000000000 1
ion C   9.450751000000000  18.638230000000000   0.026019000000000 1
ion C   2.213734999999998  11.870953000000000   0.052861000000000 1
ion C   7.268619000000000   6.818785000000000   0.049060000000000 1
ion C   7.243299000000001  11.847277000000000   0.052273000000000 1
ion N   2.121862999999999   6.751426000000000   0.053691000000000 1
ion Co   4.725829999999999   9.339727999999999   0.078357000000000 1

# Forces in Cartesian coordinates:
force C  -0.000457498854257  -0.000076533568122   0.000050574490407 1
force C  -0.000015793392280   0.000008360614908   0.000036645540258 1
force C   0.000106060423536  -0.000826986751867  -0.000022093171633 1
force C  -0.000138830229228  -0.000292262774735  -0.000041927351765 1
force C   0.000120563951810  -0.000405348591364   0.000014070776910 1
force C  -0.000173683104511  -0.000634185617409   0.000070274731471 1
force C  -0.000044916240692  -0.000733158865338   0.000106751787649 1
force C   0.000735042566230  -0.000965358790580   0.000095096027905 1
force C  -0.000561803002332   0.000180260507193   0.000018444260039 1
force C  -0.000181922391845   0.000205990631732   0.000004868143913 1
force C  -0.000037892457460   0.000019473880955   0.000023676105316 1
force C  -0.000184883157957   0.000465140256199   0.000118901022727 1
force C  -0.000374538779019  -0.000344581018913   0.000038103070440 1
force C  -0.000109603279210   0.000178412973827   0.000012101577300 1
force C  -0.000384910026028  -0.000510331341466   0.000019355225823 1
force C  -0.000964220213201  -0.000602386241863   0.000069782347147 1
force C  -0.000056818079979  -0.000144773878192   0.000090551208670 1
force C  -0.000118681252873  -0.000251199427186   0.000021145083061 1
force C  -0.000105139628192  -0.000411297047680  -0.000025050019159 1
force C  -0.000244479850589  -0.000696739754171  -0.000026432119799 1
force C   0.000502371594100   0.000067449767480   0.000034079768576 1
force C  -0.000408295057824  -0.000282295047353   0.000049995700805 1
force C   0.000019489392451   0.000157938680625   0.000072758759917 1
force C  -0.000649590493640  -0.000068763686106   0.000042862500900 1
force C   0.000440738220782   0.000559806758850  -0.000024929081360 1
force C   0.000023486713598   0.000416200731686  -0.000011600677656 1
force C   0.000331917624702   0.000474555991205   0.000045291101164 1
force C   0.000195474146945   0.000679378919533   0.000123883506673 1
force C   0.001294470228639   0.001135459678099   0.000089947996739 1
force C   0.000276600063429  -0.000007064501269   0.000022440603804 1
force C   0.000132405843546  -0.000282324707676   0.000034679168415 1
force C   0.000765005248262   0.000017441305543   0.000046653230592 1
force C   0.000026175339839  -0.000302867260513   0.000090449850645 1
force C   0.000111213849980   0.000167352722324   0.000016826915273 1
force C   0.000192344824704   0.000018189604805  -0.000009060247301 1
force C   0.000606552699892   0.000164203601212   0.000015952902812 1
force C  -0.000967105652726   0.000688428783445   0.000083192955519 1
force C   0.000154397986097   0.000608579777150   0.000070840565180 1
force C   0.000280057680850   0.000148788419362   0.000045242114738 1
force C  -0.000212970944417   0.000189207549154  -0.000003459059613 1
force C   0.000270355857894   0.000419399257518  -0.000044699527612 1
force C  -0.000100999626384   0.000674843895505  -0.000025994619081 1
force C   0.000360278492619  -0.000013034156029   0.000033684752185 1
force C   0.000307511263321   0.000492897825882   0.000036587533011 1
force C  -0.001423412410133   0.000310575785224   0.000138375811302 1
force C   0.000750487777133  -0.000191170950378   0.000152492889033 1
force C   0.000978392186351  -0.000628531477282   0.000142715513086 1
force N  -0.000857080727918   0.000676097794696   0.000146495425679 1
force Co   0.000242725737993  -0.000394517907258  -0.000040638747388 1

# Energy components:
   A_diel =        0.0051618136546526
   Eewald =     3659.1359785233303228
       EH =     3996.8137795366055798
     Eloc =    -8226.8277630439006316
      Enl =       65.3195446838421958
     EvdW =       -0.0639492110717211
      Exc =     -104.1668473524101017
 Exc_core =        2.2154730081496834
       KE =      180.6095436109164041
  MuShift =        0.0010467214732850
-------------------------------------
     Etot =     -426.9580317094104771
       TS =        0.0001101448146998
-------------------------------------
        F =     -426.9581418542251754
      muN =      -35.9378828563995327
-------------------------------------
        G =     -391.0202589978256356

IonicMinimize: Iter:   0  G: -391.020258997825636  grad_max:  1.433e-03  t[s]:    300.56

#--- Lowdin population analysis ---
# oxidation-state C +0.049 +0.068 +0.053 +0.052 +0.054 +0.050 +0.170 +0.196 +0.051 +0.052 +0.054 +0.040 +0.052 +0.054 +0.044 +0.071 +0.071 +0.054 +0.059 +0.054 +0.044 +0.048 +0.036 +0.035 +0.048 +0.051 +0.044 +0.041 +0.040 +0.041 +0.046 +0.046 +0.036 +0.045 +0.051 +0.043 +0.071 +0.033 +0.043 +0.046 +0.051 +0.054 +0.044 +0.049 -0.040 -0.058 -0.014
# magnetic-moments C -0.004 -0.008 -0.002 -0.006 -0.009 -0.008 -0.014 -0.004 -0.011 -0.007 -0.007 +0.002 -0.005 -0.001 +0.009 +0.012 +0.000 -0.000 +0.001 -0.005 -0.010 -0.004 +0.005 +0.003 +0.014 +0.026 +0.013 +0.034 +0.035 +0.012 +0.013 +0.003 +0.004 +0.006 +0.002 -0.000 +0.032 +0.004 +0.006 +0.007 +0.006 +0.007 +0.013 +0.006 -0.031 +0.014 -0.034
# oxidation-state N -0.096
# magnetic-moments N +0.029
# oxidation-state Co +0.045
# magnetic-moments Co +1.649


Computing DFT-D3 correction:
# coordination-number C 3.292 3.319 3.328 3.322 3.302 3.275 3.271 3.415 3.318 3.297 3.289 3.252 3.294 3.293 3.314 3.404 3.259 3.293 3.308 3.330 3.323 3.293 3.295 3.323 3.324 3.304 3.290 3.243 3.392 3.306 3.287 3.295 3.258 3.291 3.304 3.326 3.406 3.255 3.281 3.306 3.325 3.328 3.311 3.292 3.214 3.220 3.222
# coordination-number N 3.138
# coordination-number Co 4.421
# diagonal-C6 C 24.35 24.09 23.99 24.06 24.27 24.51 24.54 22.90 24.10 24.31 24.39 24.69 24.34 24.35 24.15 23.05 24.64 24.34 24.20 23.98 24.05 24.35 24.33 24.05 24.04 24.24 24.38 24.75 23.22 24.22 24.40 24.33 24.64 24.37 24.24 24.01 23.03 24.67 24.46 24.23 24.03 23.99 24.18 24.36 24.95 24.91 24.90
# diagonal-C6 N 15.61
# diagonal-C6 Co 148.07
EvdW_6 =   -0.035186
EvdW_8 =   -0.028762
Shifting auxilliary hamiltonian by 0.000051 to set nElectrons=209.794996

-------- Electronic minimization -----------
	Linear fluid (dielectric constant: 78.4, screening length: 8.12261 Bohr) occupying 0.874488 of unit cell:	Completed after 3 iterations at t[s]:    302.18
	FillingsUpdate:  mu: -0.171300000  nElectrons: 209.794996  magneticMoment: [ Abs: 2.17718  Tot: +1.79348 ]
ElecMinimize: Iter:   0  G: -391.020257042598303  |grad|_K:  4.633e-07  alpha:  1.000e+00
	Linear fluid (dielectric constant: 78.4, screening length: 8.12261 Bohr) occupying 0.874483 of unit cell:	Completed after 9 iterations at t[s]:    304.32
	Linear fluid (dielectric constant: 78.4, screening length: 8.12261 Bohr) occupying 0.874487 of unit cell:	Completed after 8 iterations at t[s]:    305.21
	FillingsUpdate:  mu: -0.171300000  nElectrons: 209.794688  magneticMoment: [ Abs: 2.17827  Tot: +1.79347 ]
	SubspaceRotationAdjust: set factor to 0.6
ElecMinimize: Iter:   1  G: -391.020265914449169  |grad|_K:  1.576e-07  alpha:  1.150e-01  linmin: -1.083e-04  t[s]:    306.48
	Linear fluid (dielectric constant: 78.4, screening length: 8.12261 Bohr) occupying 0.874487 of unit cell:	Completed after 2 iterations at t[s]:    307.22
ElecMinimize: 	Predicted alpha/alphaT>3.000000, increasing alphaT to 3.449507e-01.
	Linear fluid (dielectric constant: 78.4, screening length: 8.12261 Bohr) occupying 0.874487 of unit cell:	Completed after 2 iterations at t[s]:    308.04
	Linear fluid (dielectric constant: 78.4, screening length: 8.12261 Bohr) occupying 0.874487 of unit cell:	Completed after 2 iterations at t[s]:    308.86
	FillingsUpdate:  mu: -0.171300000  nElectrons: 209.797005  magneticMoment: [ Abs: 2.17906  Tot: +1.79575 ]
	SubspaceRotationAdjust: set factor to 0.808
ElecMinimize: Iter:   2  G: -391.020271001256333  |grad|_K:  7.326e-08  alpha:  5.612e-01  linmin: -6.528e-04  t[s]:    310.13
	Linear fluid (dielectric constant: 78.4, screening length: 8.12261 Bohr) occupying 0.874487 of unit cell:	Completed after 3 iterations at t[s]:    310.88
	Linear fluid (dielectric constant: 78.4, screening length: 8.12261 Bohr) occupying 0.874487 of unit cell:	Completed after 0 iterations at t[s]:    311.66
	FillingsUpdate:  mu: -0.171300000  nElectrons: 209.797729  magneticMoment: [ Abs: 2.17860  Tot: +1.79639 ]
	SubspaceRotationAdjust: set factor to 0.651
ElecMinimize: Iter:   3  G: -391.020271967410508  |grad|_K:  9.996e-08  alpha:  4.762e-01  linmin:  1.214e-04  t[s]:    312.94
	Linear fluid (dielectric constant: 78.4, screening length: 8.12261 Bohr) occupying 0.874486 of unit cell:	Completed after 3 iterations at t[s]:    313.69
	Linear fluid (dielectric constant: 78.4, screening length: 8.12261 Bohr) occupying 0.874487 of unit cell:	Completed after 3 iterations at t[s]:    314.51
	FillingsUpdate:  mu: -0.171300000  nElectrons: 209.797845  magneticMoment: [ Abs: 2.17853  Tot: +1.79655 ]
	SubspaceRotationAdjust: set factor to 0.542
ElecMinimize: Iter:   4  G: -391.020272327585076  |grad|_K:  4.383e-08  alpha:  1.303e-01  linmin:  1.373e-04  t[s]:    315.77
	Linear fluid (dielectric constant: 78.4, screening length: 8.12261 Bohr) occupying 0.874487 of unit cell:	Completed after 0 iterations at t[s]:    316.51
ElecMinimize: 	Predicted alpha/alphaT>3.000000, increasing alphaT to 3.908887e-01.
	Linear fluid (dielectric constant: 78.4, screening length: 8.12261 Bohr) occupying 0.874486 of unit cell:	Completed after 0 iterations at t[s]:    317.30
	Linear fluid (dielectric constant: 78.4, screening length: 8.12261 Bohr) occupying 0.874486 of unit cell:	Completed after 0 iterations at t[s]:    318.10
	FillingsUpdate:  mu: -0.171300000  nElectrons: 209.797726  magneticMoment: [ Abs: 2.17802  Tot: +1.79649 ]
	SubspaceRotationAdjust: set factor to 0.581
ElecMinimize: Iter:   5  G: -391.020272655245662  |grad|_K:  3.656e-08  alpha:  5.103e-01  linmin: -8.139e-08  t[s]:    319.36
	Linear fluid (dielectric constant: 78.4, screening length: 8.12261 Bohr) occupying 0.874485 of unit cell:	Completed after 1 iterations at t[s]:    320.09
	Linear fluid (dielectric constant: 78.4, screening length: 8.12261 Bohr) occupying 0.874486 of unit cell:	Completed after 0 iterations at t[s]:    320.92
	FillingsUpdate:  mu: -0.171300000  nElectrons: 209.797654  magneticMoment: [ Abs: 2.17779  Tot: +1.79643 ]
	SubspaceRotationAdjust: set factor to 0.549
ElecMinimize: Iter:   6  G: -391.020272715088652  |grad|_K:  6.263e-08  alpha:  1.643e-01  linmin:  6.876e-04  t[s]:    322.19
	Linear fluid (dielectric constant: 78.4, screening length: 8.12261 Bohr) occupying 0.874485 of unit cell:	Completed after 1 iterations at t[s]:    322.93
	Linear fluid (dielectric constant: 78.4, screening length: 8.12261 Bohr) occupying 0.874486 of unit cell:	Completed after 0 iterations at t[s]:    323.73
ElecMinimize: 	Step increased G by 1.952492e-08, reducing alpha to 4.145304e-03.
	Linear fluid (dielectric constant: 78.4, screening length: 8.12261 Bohr) occupying 0.874486 of unit cell:	Completed after 0 iterations at t[s]:    325.55
ElecMinimize: 	Step increased G by 3.556761e-08, reducing alpha to 4.145304e-04.
	Linear fluid (dielectric constant: 78.4, screening length: 8.12261 Bohr) occupying 0.874486 of unit cell:	Completed after 0 iterations at t[s]:    327.52
ElecMinimize: 	Step increased G by 3.915346e-08, reducing alpha to 4.145304e-05.
ElecMinimize: 	Step failed to reduce G after 3 attempts. Quitting step.
ElecMinimize: 	Undoing step.
	Linear fluid (dielectric constant: 78.4, screening length: 8.12261 Bohr) occupying 0.874486 of unit cell:	Completed after 0 iterations at t[s]:    329.33
ElecMinimize: 	Step failed: resetting search direction.
	FillingsUpdate:  mu: -0.171300000  nElectrons: 209.797653  magneticMoment: [ Abs: 2.17779  Tot: +1.79643 ]
	SubspaceRotationAdjust: set factor to 0.827
ElecMinimize: Iter:   7  G: -391.020272675887270  |grad|_K:  4.310e-08  alpha:  4.145e-05
	Linear fluid (dielectric constant: 78.4, screening length: 8.12261 Bohr) occupying 0.874486 of unit cell:	Completed after 2 iterations at t[s]:    331.39
	Linear fluid (dielectric constant: 78.4, screening length: 8.12261 Bohr) occupying 0.874486 of unit cell:	Completed after 0 iterations at t[s]:    332.25
	FillingsUpdate:  mu: -0.171300000  nElectrons: 209.797629  magneticMoment: [ Abs: 2.17780  Tot: +1.79642 ]
	SubspaceRotationAdjust: set factor to 0.576
ElecMinimize: Iter:   8  G: -391.020272712845610  |grad|_K:  2.310e-08  alpha:  9.203e-02  linmin:  2.015e-03  t[s]:    333.56
	Linear fluid (dielectric constant: 78.4, screening length: 8.12261 Bohr) occupying 0.874486 of unit cell:	Completed after 0 iterations at t[s]:    334.28
ElecMinimize: 	Predicted alpha/alphaT>3.000000, increasing alphaT to 2.760813e-01.
	Linear fluid (dielectric constant: 78.4, screening length: 8.12261 Bohr) occupying 0.874486 of unit cell:	Completed after 0 iterations at t[s]:    335.13
	Linear fluid (dielectric constant: 78.4, screening length: 8.12261 Bohr) occupying 0.874485 of unit cell:	Completed after 0 iterations at t[s]:    335.94
	FillingsUpdate:  mu: -0.171300000  nElectrons: 209.797648  magneticMoment: [ Abs: 2.17733  Tot: +1.79640 ]
	SubspaceRotationAdjust: set factor to 0.765
ElecMinimize: Iter:   9  G: -391.020272797483244  |grad|_K:  2.687e-08  alpha:  4.950e-01  linmin:  4.544e-08  t[s]:    337.21
ElecMinimize: Converged (|Delta G|<1.000000e-07 for 2 iters).
Setting wave functions to eigenvectors of Hamiltonian
Converging empty states (this may take a while): |deigs|: 2.633e-07

Computing DFT-D3 correction:
# coordination-number C 3.292 3.319 3.328 3.322 3.302 3.275 3.271 3.415 3.318 3.297 3.289 3.252 3.294 3.293 3.314 3.404 3.259 3.293 3.308 3.330 3.323 3.293 3.295 3.323 3.324 3.304 3.290 3.243 3.392 3.306 3.287 3.295 3.258 3.291 3.304 3.326 3.406 3.255 3.281 3.306 3.325 3.328 3.311 3.292 3.214 3.220 3.222
# coordination-number N 3.138
# coordination-number Co 4.421
# diagonal-C6 C 24.35 24.09 23.99 24.06 24.27 24.51 24.54 22.90 24.10 24.31 24.39 24.69 24.34 24.35 24.15 23.05 24.64 24.34 24.20 23.98 24.05 24.35 24.33 24.05 24.04 24.24 24.38 24.75 23.22 24.22 24.40 24.33 24.64 24.37 24.24 24.01 23.03 24.67 24.46 24.23 24.03 23.99 24.18 24.36 24.95 24.91 24.90
# diagonal-C6 N 15.61
# diagonal-C6 Co 148.07
EvdW_6 =   -0.035186
EvdW_8 =   -0.028762

# Ionic positions in cartesian coordinates:
ion C  -0.009167663157564   0.021661268016544   0.024869739667086 1
ion C  21.173269042304412   3.964846162199574   0.031635810716937 1
ion C  18.827832896120228   8.000204814832799   0.036900072005046 1
ion C  -7.059613994532534  12.029275538809932   0.035423237824914 1
ion C  -9.403944600351496  16.064294452993302   0.028227235953590 1
ion C   4.701343152592184   0.150535615967257   0.026367439908150 1
ion C   2.275325919456002   4.162443642719328   0.038029916964328 1
ion C  -0.164482121737076   7.940414442794085   0.044861261204584 1
ion C  -2.448828967305638  12.009844062091858   0.036917609436719 1
ion C  -4.729584086695152  16.065506792216397   0.029073033320592 1
ion C   9.435750943239233   0.036428275465621   0.026186841281995 1
ion C   7.121473952538736   4.150285941840865   0.035048066199407 1
ion C  -0.015068703082327  15.958434220565755   0.030974268247120 1
ion C   2.376602232417486  19.917581214558492   0.028351266753979 1
ion C  11.846510925670668   3.970284470243199   0.031422520402502 1
ion C   9.655242615483493   7.985589415342803   0.042341947523827 1
ion C   4.722241017616715  15.857732027706472   0.035830716385349 1
ion C   7.075409154443823  19.916026602157476   0.027795310259740 1
ion C  16.514295696068501   3.949639504536986   0.032898115157521 1
ion C  14.235837355846103   7.997814061830495   0.036870733056880 1
ion C  11.924289207290792  12.039185251352144   0.035446244945255 1
ion C   9.460800540638868  15.951950506537314   0.030012160877484 1
ion C  -0.034447674910855   2.708456740265291   0.029122923936596 1
ion C  -2.461129754796946   6.619733037898559   0.036079027677579 1
ion C  -4.761901426082524  10.670770608343517   0.037101236095319 1
ion C  -7.065191677589708  14.721862002316353   0.031186564499023 1
ion C  -9.416916246678603  18.746061357575872   0.025313456277843 1
ion C   4.705658309843640   2.851738180504199   0.032926048683352 1
ion C  -0.151161694074666  10.661495261262765   0.044520113173418 1
ion C  -2.395582564239876  14.692692737083396   0.032154605780483 1
ion C  -4.726368758459758  18.754485476876987   0.026038844345094 1
ion C   9.453853840944957   2.720009242890209   0.028798818407271 1
ion C   2.318865011036535  14.541704934324152   0.038847615027324 1
ion C  -0.002470950453326  18.642907154306990   0.027320992091952 1
ion C  14.173867180521398   2.608417991189471   0.030425104929378 1
ion C  11.931844388396586   6.641670005185877   0.035829118079491 1
ion C   9.644406730043968  10.686173230368109   0.043390358132198 1
ion C   7.119329233682791  14.523886381361816   0.038873005741859 1
ion C   4.725532893377543  18.543918590004026   0.029354407291418 1
ion C  18.843852864752272   2.602183009133820   0.030245706117067 1
ion C  16.531118191554587   6.642131200842184   0.036130465649067 1
ion C  14.232250836070309  10.684971645480172   0.036331170557598 1
ion C  11.854581114189314  14.710857767428637   0.030803849928864 1
ion C   9.451049346960017  18.638721699410549   0.026013752709690 1
ion C   2.212302423286561  11.871262377369888   0.052957540987981 1
ion C   7.269360323473827   6.818592630634289   0.049170658065712 1
ion C   7.244268227883047  11.846647270107383   0.052373880689766 1
ion N   2.120996754968775   6.752100899379362   0.053795660602358 1
ion Co   4.726063561434688   9.339332283677406   0.078274526429291 1

# Forces in Cartesian coordinates:
force C  -0.000107713662830   0.000104786860704   0.000050937000806 1
force C  -0.000135683008814   0.000077578758073   0.000037089994646 1
force C   0.000099325138652  -0.000053192085872  -0.000021229357597 1
force C   0.000071547583184   0.000041270257852  -0.000041708545550 1
force C   0.000137387928365   0.000009014524076   0.000013861268457 1
force C   0.000038807733716  -0.000108986154389   0.000070320027316 1
force C  -0.000055514553787  -0.000266136749148   0.000114759815841 1
force C   0.000069257650963  -0.000101003405492   0.000097460300962 1
force C   0.000037651896495   0.000147059887667   0.000019801685686 1
force C  -0.000000197085409   0.000074487000244   0.000005397763768 1
force C   0.000093129937898   0.000006567178447   0.000024097823319 1
force C   0.000085832447725   0.000174108545409   0.000121175787890 1
force C  -0.000016263846052  -0.000089252374980   0.000040043867185 1
force C   0.000069953459982   0.000087603788791   0.000012965574524 1
force C   0.000118222141538  -0.000120215628820   0.000019390314570 1
force C  -0.000051937986288  -0.000072513116081   0.000073463923767 1
force C  -0.000020455943980  -0.000054495532682   0.000088792582353 1
force C   0.000013474849322   0.000008298061606   0.000021603618521 1
force C  -0.000004609080632  -0.000029449177482  -0.000025015395684 1
force C   0.000028028684299  -0.000021080986666  -0.000026923748813 1
force C   0.000093366651596   0.000119753919012   0.000032943157808 1
force C  -0.000080721277004   0.000063007742562   0.000048972830324 1
force C   0.000002919842414   0.000030818260519   0.000073713171609 1
force C  -0.000093086081174  -0.000208232595588   0.000042201306426 1
force C   0.000119352232106  -0.000029333340819  -0.000025544361065 1
force C   0.000023921592572   0.000092741636987  -0.000011487913313 1
force C   0.000050632553278   0.000117828693054   0.000045740386812 1
force C   0.000052413456745   0.000244273433228   0.000121719853204 1
force C   0.000071518310829   0.000233551911837   0.000092574968074 1
force C  -0.000125658235908   0.000017138944940   0.000021320722920 1
force C   0.000004356507360  -0.000122592365264   0.000034851046218 1
force C   0.000154724850447  -0.000057150944155   0.000047931498731 1
force C  -0.000143194376956   0.000007503659795   0.000094267966015 1
force C  -0.000013041727369   0.000013208311649   0.000016602925811 1
force C   0.000005479442006  -0.000062801437697  -0.000009069062140 1
force C  -0.000053269809645  -0.000128142939199   0.000015951015753 1
force C  -0.000072589987138   0.000039472663366   0.000086017763353 1
force C   0.000091686157655   0.000192409955624   0.000078943980030 1
force C   0.000056975899454   0.000028190281457   0.000044130393226 1
force C  -0.000115423182431  -0.000022570647952  -0.000003181495295 1
force C   0.000055628556490  -0.000078551761994  -0.000044448753121 1
force C  -0.000046951926454   0.000023961316442  -0.000025041704612 1
force C   0.000169931381033  -0.000063455056098   0.000034029738873 1
force C   0.000035312876400   0.000116557388387   0.000036935528112 1
force C  -0.000517972794223   0.000362383332610   0.000132189723737 1
[...]
# magnetic-moments C -0.003 -0.008 -0.002 -0.006 -0.009 -0.008 -0.014 -0.004 -0.011 -0.006 -0.007 +0.002 -0.005 -0.001 +0.009 +0.012 +0.001 -0.000 +0.002 -0.005 -0.010 -0.004 +0.005 +0.003 +0.013 +0.026 +0.013 +0.033 +0.035 +0.012 +0.013 +0.003 +0.004 +0.006 +0.002 -0.000 +0.031 +0.003 +0.006 +0.007 +0.005 +0.007 +0.013 +0.006 -0.031 +0.014 -0.033
# oxidation-state N -0.096
# magnetic-moments N +0.029
# oxidation-state Co +0.047
# magnetic-moments Co +1.651


Computing DFT-D3 correction:
# coordination-number C 3.292 3.320 3.328 3.322 3.302 3.275 3.271 3.415 3.318 3.297 3.289 3.252 3.294 3.293 3.314 3.404 3.259 3.293 3.308 3.330 3.323 3.293 3.295 3.323 3.324 3.304 3.290 3.243 3.392 3.307 3.287 3.295 3.259 3.291 3.304 3.326 3.406 3.255 3.281 3.306 3.325 3.328 3.311 3.292 3.214 3.220 3.222
# coordination-number N 3.138
# coordination-number Co 4.421
# diagonal-C6 C 24.35 24.09 23.99 24.06 24.27 24.51 24.54 22.90 24.10 24.31 24.39 24.69 24.34 24.35 24.15 23.05 24.64 24.34 24.20 23.98 24.05 24.35 24.33 24.05 24.04 24.24 24.38 24.75 23.22 24.22 24.40 24.33 24.64 24.37 24.24 24.01 23.03 24.67 24.45 24.23 24.03 23.99 24.18 24.36 24.95 24.91 24.90
# diagonal-C6 N 15.61
# diagonal-C6 Co 148.07
EvdW_6 =   -0.035186
EvdW_8 =   -0.028762
Shifting auxilliary hamiltonian by 0.000006 to set nElectrons=209.797648

-------- Electronic minimization -----------
	Linear fluid (dielectric constant: 78.4, screening length: 8.12261 Bohr) occupying 0.874485 of unit cell:	Completed after 3 iterations at t[s]:    343.91
	FillingsUpdate:  mu: -0.171300000  nElectrons: 209.797648  magneticMoment: [ Abs: 2.17617  Tot: +1.79629 ]
ElecMinimize: Iter:   0  G: -391.020271454094541  |grad|_K:  2.513e-07  alpha:  1.000e+00
	Linear fluid (dielectric constant: 78.4, screening length: 8.12261 Bohr) occupying 0.874482 of unit cell:	Completed after 8 iterations at t[s]:    346.07
	Linear fluid (dielectric constant: 78.4, screening length: 8.12261 Bohr) occupying 0.874485 of unit cell:	Completed after 8 iterations at t[s]:    346.90
	FillingsUpdate:  mu: -0.171300000  nElectrons: 209.797344  magneticMoment: [ Abs: 2.17672  Tot: +1.79616 ]
	SubspaceRotationAdjust: set factor to 0.987
ElecMinimize: Iter:   1  G: -391.020273683758887  |grad|_K:  5.857e-08  alpha:  9.592e-02  linmin: -2.978e-04  t[s]:    348.17
	Linear fluid (dielectric constant: 78.4, screening length: 8.12261 Bohr) occupying 0.874485 of unit cell:	Completed after 0 iterations at t[s]:    348.89
ElecMinimize: 	Predicted alpha/alphaT>3.000000, increasing alphaT to 2.877450e-01.
	Linear fluid (dielectric constant: 78.4, screening length: 8.12261 Bohr) occupying 0.874485 of unit cell:	Completed after 0 iterations at t[s]:    349.69
ElecMinimize: 	Predicted alpha/alphaT>3.000000, increasing alphaT to 8.632351e-01.
	Linear fluid (dielectric constant: 78.4, screening length: 8.12261 Bohr) occupying 0.874485 of unit cell:	Completed after 2 iterations at t[s]:    350.51
	Linear fluid (dielectric constant: 78.4, screening length: 8.12261 Bohr) occupying 0.874485 of unit cell:	Completed after 0 iterations at t[s]:    351.29
	FillingsUpdate:  mu: -0.171300000  nElectrons: 209.797998  magneticMoment: [ Abs: 2.17714  Tot: +1.79684 ]
	SubspaceRotationAdjust: set factor to 0.741
ElecMinimize: Iter:   2  G: -391.020274404449935  |grad|_K:  5.387e-08  alpha:  5.536e-01  linmin:  2.207e-03  t[s]:    352.55
	Linear fluid (dielectric constant: 78.4, screening length: 8.12261 Bohr) occupying 0.874485 of unit cell:	Completed after 3 iterations at t[s]:    353.29
	Linear fluid (dielectric constant: 78.4, screening length: 8.12261 Bohr) occupying 0.874485 of unit cell:	Completed after 3 iterations at t[s]:    354.10
ElecMinimize: 	Step increased G by 9.222731e-09, reducing alpha to 1.286409e-02.
	Linear fluid (dielectric constant: 78.4, screening length: 8.12261 Bohr) occupying 0.874485 of unit cell:	Completed after 0 iterations at t[s]:    355.91
ElecMinimize: 	Step increased G by 7.094457e-09, reducing alpha to 1.286409e-03.
	Linear fluid (dielectric constant: 78.4, screening length: 8.12261 Bohr) occupying 0.874485 of unit cell:	Completed after 0 iterations at t[s]:    357.76
ElecMinimize: 	Step increased G by 8.686925e-09, reducing alpha to 1.286409e-04.
ElecMinimize: 	Step failed to reduce G after 3 attempts. Quitting step.
ElecMinimize: 	Undoing step.
	Linear fluid (dielectric constant: 78.4, screening length: 8.12261 Bohr) occupying 0.874485 of unit cell:	Completed after 0 iterations at t[s]:    359.59
ElecMinimize: 	Step failed: resetting search direction.
	FillingsUpdate:  mu: -0.171300000  nElectrons: 209.798000  magneticMoment: [ Abs: 2.17713  Tot: +1.79684 ]
	SubspaceRotationAdjust: set factor to 0.522
ElecMinimize: Iter:   3  G: -391.020274395737260  |grad|_K:  4.141e-08  alpha:  1.286e-04
	Linear fluid (dielectric constant: 78.4, screening length: 8.12261 Bohr) occupying 0.874485 of unit cell:	Completed after 3 iterations at t[s]:    361.60
	Linear fluid (dielectric constant: 78.4, screening length: 8.12261 Bohr) occupying 0.874485 of unit cell:	Completed after 3 iterations at t[s]:    362.48
ElecMinimize: 	Step increased G by 1.072333e-07, reducing alpha to 9.651671e-03.
	Linear fluid (dielectric constant: 78.4, screening length: 8.12261 Bohr) occupying 0.874485 of unit cell:	Completed after 0 iterations at t[s]:    364.31
ElecMinimize: 	Step increased G by 5.918389e-08, reducing alpha to 9.651671e-04.
	Linear fluid (dielectric constant: 78.4, screening length: 8.12261 Bohr) occupying 0.874485 of unit cell:	Completed after 0 iterations at t[s]:    366.19
ElecMinimize: 	Step increased G by 5.500709e-08, reducing alpha to 9.651671e-05.
ElecMinimize: 	Step failed to reduce G after 3 attempts. Quitting step.
ElecMinimize: 	Undoing step.
	Linear fluid (dielectric constant: 78.4, screening length: 8.12261 Bohr) occupying 0.874485 of unit cell:	Completed after 0 iterations at t[s]:    368.00
ElecMinimize: 	Step failed along negative gradient direction.
ElecMinimize: Probably at roundoff error limit. (Stopping)
Setting wave functions to eigenvectors of Hamiltonian
Converging empty states (this may take a while): |deigs|: 2.001e-08

Computing DFT-D3 correction:
# coordination-number C 3.292 3.320 3.328 3.322 3.302 3.275 3.271 3.415 3.318 3.297 3.289 3.252 3.294 3.293 3.314 3.404 3.259 3.293 3.308 3.330 3.323 3.293 3.295 3.323 3.324 3.304 3.290 3.243 3.392 3.307 3.287 3.295 3.259 3.291 3.304 3.326 3.406 3.255 3.281 3.306 3.325 3.328 3.311 3.292 3.214 3.220 3.222
# coordination-number N 3.138
# coordination-number Co 4.421
# diagonal-C6 C 24.35 24.09 23.99 24.06 24.27 24.51 24.54 22.90 24.10 24.31 24.39 24.69 24.34 24.35 24.15 23.05 24.64 24.34 24.20 23.98 24.05 24.35 24.33 24.05 24.04 24.24 24.38 24.75 23.22 24.22 24.40 24.33 24.64 24.37 24.24 24.01 23.03 24.67 24.45 24.23 24.03 23.99 24.18 24.36 24.95 24.91 24.90
# diagonal-C6 N 15.61
# diagonal-C6 Co 148.07
EvdW_6 =   -0.035186
EvdW_8 =   -0.028762

# Ionic positions in cartesian coordinates:
ion C  -0.009373733906368   0.021790710631718   0.024883261253248 1
ion C  21.173055972115755   3.964944368912219   0.031629387704619 1
ion C  18.827950205922221   8.000064803520468   0.036809643188353 1
ion C  -7.059552064220619  12.029302737963013   0.035303365998682 1
ion C  -9.403774151675513  16.064269479483670   0.028187411408976 1
ion C   4.701357789939340   0.150332876796038   0.026408894271949 1
ion C   2.275220543798192   4.162018738493861   0.038134797620474 1
ion C  -0.164361416103496   7.940199170404532   0.044941631516261 1
ion C  -2.448843409167809  12.010049573101861   0.036886227697509 1
ion C  -4.729623434147544  16.065614767344385   0.029020969512426 1
ion C   9.435849572764241   0.036430048319158   0.026161711994247 1
ion C   7.121552177436627   4.150548667484763   0.035162591619324 1
ion C  -0.015143693475824  15.958279016044109   0.030971992610206 1
ion C   2.376664050846675  19.917705193972292   0.028310076414402 1
ion C  11.846619323834920   3.970075131506555   0.031390639997855 1
ion C   9.655077007402710   7.985438863876626   0.042387671278966 1
ion C   4.722182797126266  15.857638563952333   0.035898897834138 1
ion C   7.075393005475713  19.916011568607495   0.027766586870068 1
ion C  16.514255747957058   3.949561449362398   0.032802293435792 1
ion C  14.235832220042173   7.997727240965283   0.036772200713018 1
ion C  11.924426436476619  12.039345385857761   0.035433962768394 1
ion C   9.460634910770342  15.952008172421206   0.030022952333995 1
ion C  -0.034468485779809   2.708501524699871   0.029169199801390 1
ion C  -2.461329408016503   6.619434479406975   0.036080042954424 1
ion C  -4.761732986799373  10.670761510636815   0.037004698740742 1
ion C  -7.065183451993867  14.722009862228301   0.031110215940809 1
ion C  -9.416849600279241  18.746247698146696   0.025319488928352 1
ion C   4.705717727976176   2.852112146106544   0.033041671966591 1
ion C  -0.150998260151031  10.661886859669577   0.044593430310644 1
ion C  -2.395761194695834  14.692707103488996   0.032125586864023 1
ion C  -4.726379602720671  18.754289037547363   0.026029216702861 1
ion C   9.454093681540403   2.719923635947180   0.028807947387053 1
ion C   2.318644630433766  14.541685152704844   0.038923285584201 1
ion C  -0.002507115819573  18.642928496097650   0.027285116382486 1
ion C  14.173862120098805   2.608324701230537   0.030352247973777 1
ion C  11.931788240000571   6.641497601395878   0.035792287926636 1
ion C   9.644212643108839  10.686267446585477   0.043454219302892 1
ion C   7.119439509563817  14.524184325394378   0.038926307153688 1
ion C   4.725604550311338  18.543959128240783   0.029358232246523 1
ion C  18.843653562821693   2.602156914663899   0.030181306588006 1
ion C  16.531187316519699   6.642044771406145   0.036006645836377 1
ion C  14.232153210126693  10.685043662843464   0.036235245895419 1
ion C  11.854813100586862  14.710761370527388   0.030793027393104 1
ion C   9.451093290259962  18.638907598898520   0.026007114109317 1
ion C   2.211466240003390  11.871771917717199   0.053088525181066 1
ion C   7.269676760963363   6.818204383896076   0.049328112948949 1
ion C   7.244954660068127  11.846745306709579   0.052514015841476 1
ion N   2.120365094174870   6.752016610534668   0.053929228546945 1
ion Co   4.726648908485862   9.339032224253414   0.078119413449348 1

# Forces in Cartesian coordinates:
force C   0.000081151083972   0.000099668710513   0.000051703927144 1
force C  -0.000064325755568  -0.000092225407558   0.000037464780286 1
force C   0.000019601420646   0.000043501410969  -0.000017686139945 1
force C   0.000073289923289   0.000055733045017  -0.000034479777579 1
force C   0.000067882464825   0.000138400458183   0.000016003017601 1
force C   0.000100314534098   0.000203074966807   0.000068889607281 1
force C  -0.000066944637401   0.000019344021400   0.000114110463120 1
force C  -0.000302680283243   0.000140244232097   0.000093180045336 1
force C   0.000113035353276   0.000062506004701   0.000023593886672 1
force C   0.000004583858397  -0.000018903391994   0.000008351222624 1
force C   0.000019665339373  -0.000043271684825   0.000027361977415 1
force C   0.000181710801973  -0.000081022102660   0.000115848077561 1
force C  -0.000046588599754   0.000040947223617   0.000042712479408 1
force C   0.000035916959450  -0.000035753109960   0.000014775917509 1
force C   0.000099319280299  -0.000015598059616   0.000019450019392 1
force C   0.000156372980944   0.000027492928203   0.000072495163296 1
force C  -0.000019779513812   0.000034905043724   0.000081401472699 1
force C   0.000036621386990   0.000038554538051   0.000024034133419 1
force C  -0.000025646942975   0.000024914831006  -0.000022837290699 1
force C   0.000021921709620   0.000045263924686  -0.000024347913142 1
force C  -0.000097284660778  -0.000033130060831   0.000032305992840 1
force C   0.000151797875150   0.000113565905128   0.000050316723087 1
force C  -0.000116164334172  -0.000012690259882   0.000074011044823 1
force C   0.000100050919895  -0.000007398358915   0.000041575970673 1
force C   0.000028361050837  -0.000076917917434  -0.000022572185286 1
force C   0.000071570926058  -0.000027238028034  -0.000009442058718 1
force C  -0.000086607919829  -0.000003992678928   0.000047046475102 1
force C   0.000030589383826  -0.000078940108399   0.000113031854592 1
force C  -0.000303537952338  -0.000078365010092   0.000086768719500 1
force C  -0.000053194259461   0.000044527179097   0.000021554571519 1
force C   0.000051069056013   0.000034758670964   0.000035436505783 1
force C  -0.000037532301603   0.000015971441449   0.000050515887954 1
force C  -0.000118876102046   0.000154813166241   0.000089917589505 1
force C   0.000052940507987  -0.000047039412829   0.000020265983696 1
force C   0.000034274252847  -0.000020640254537  -0.000004477142287 1
force C  -0.000089448684648  -0.000096127354406   0.000016496029251 1
force C   0.000330735627636  -0.000089630556371   0.000079831653932 1
force C   0.000025422592577  -0.000050040137771   0.000085520933743 1
force C   0.000001514248127  -0.000060574821359   0.000042341371538 1
force C  -0.000016229392161  -0.000031520986887   0.000000345108832 1
force C   0.000019865585777  -0.000075552593523  -0.000039079628977 1
force C   0.000070140404256  -0.000071027752568  -0.000021481478727 1
force C  -0.000021013367144   0.000081198469077   0.000033908537009 1
force C  -0.000075916469249  -0.000018326246303   0.000038473169369 1
force C   0.000166619658747   0.000082892340419   0.000127381527572 1
force C  -0.000048462658934   0.000014837705269   0.000140533335457 1
force C  -0.000076664460751   0.000151008132481   0.000127968804709 1
force N   0.000079053768311  -0.000333131050582   0.000130214222682 1
force Co  -0.000234686887431  -0.000181118620910   0.000015942510690 1

# Energy components:
   A_diel =        0.0051882088800044
   Eewald =     3659.1292232729051648
       EH =     3996.9146724069350967
     Eloc =    -8226.9277273556363070
      Enl =       65.3231848910473900
     EvdW =       -0.0639487262275371
      Exc =     -104.1693565433086661
 Exc_core =        2.2154728883739780
       KE =      180.6136950589956314
  MuShift =        0.0010313906049484
-------------------------------------
     Etot =     -426.9585645074307081
       TS =        0.0001070350833525
-------------------------------------
        F =     -426.9586715425140824
      muN =      -35.9383972017326911
-------------------------------------
        G =     -391.0202743407813841

IonicMinimize: Iter:   2  G: -391.020274340781384  grad_max:  3.329e-04  alpha:  1.000e+00  linmin:  1.850e-01  t[s]:    373.57
IonicMinimize: Converged (grad_max<3.889381e-04).

#--- Lowdin population analysis ---
# oxidation-state C +0.049 +0.068 +0.053 +0.052 +0.054 +0.050 +0.170 +0.196 +0.051 +0.052 +0.054 +0.040 +0.052 +0.054 +0.044 +0.071 +0.070 +0.054 +0.059 +0.054 +0.044 +0.048 +0.036 +0.035 +0.048 +0.051 +0.044 +0.042 +0.040 +0.041 +0.046 +0.046 +0.036 +0.045 +0.051 +0.043 +0.071 +0.033 +0.043 +0.046 +0.051 +0.054 +0.044 +0.049 -0.040 -0.058 -0.015
# magnetic-moments C -0.003 -0.008 -0.002 -0.006 -0.009 -0.008 -0.014 -0.004 -0.011 -0.006 -0.007 +0.002 -0.005 -0.001 +0.009 +0.012 +0.001 -0.000 +0.002 -0.005 -0.010 -0.004 +0.005 +0.003 +0.013 +0.026 +0.013 +0.034 +0.035 +0.012 +0.013 +0.003 +0.004 +0.006 +0.002 -0.000 +0.031 +0.003 +0.006 +0.007 +0.005 +0.007 +0.013 +0.006 -0.031 +0.014 -0.033
# oxidation-state N -0.096
# magnetic-moments N +0.029
# oxidation-state Co +0.044
# magnetic-moments Co +1.650


Dumping 'fillings' ... done
Dumping 'wfns' ... done
Dumping 'fluidState' ... done
Dumping 'ionpos' ... done
Dumping 'force' ... done
Dumping 'n_up' ... done
Dumping 'n_dn' ... done
Dumping 'tau_up' ... done
Dumping 'tau_dn' ... done
Dumping 'd_tot' ... done
Dumping 'V_fluidTot' ... done
Dumping 'eigenvals' ... done
Dumping 'eigStats' ... 
	eMin: -3.697079 at state 2 ( [ +0.000000 +0.500000 +0.000000 ] spin 1 )
	HOMO: -0.172866 at state 13 ( [ -0.250000 +0.250000 +0.000000 ] spin 1 )
	mu  : -0.171300
	LUMO: -0.169181 at state 10 ( [ +0.500000 +0.500000 +0.000000 ] spin 1 )
	eMax: +0.023842 at state 16 ( [ +0.000000 +0.000000 +0.000000 ] spin -1 )
	HOMO-LUMO gap: +0.003685
	Optical gap  : +0.011806 at state 31 ( [ -0.250000 -0.250000 +0.000000 ] spin -1 )
Dumping 'Ecomponents' ... done
Dumping 'nbound' ... done
Dumping 'dosUp' ... done.
Dumping 'dosDn' ... done.
End date and time: Tue Feb  6 06:23:03 2024  (Duration: 0-0:06:21.65)
Done!

PROFILER:             augmentDensityGrid     0.006561 +/-     0.006465 s,  639 calls,      4.192473 s total
PROFILER:         augmentDensityGridGrad     0.075492 +/-     0.201287 s,  336 calls,     25.365273 s total
PROFILER:        augmentDensitySpherical     0.000933 +/-     0.001218 s, 10224 calls,      9.540189 s total
PROFILER:    augmentDensitySphericalGrad     0.000967 +/-     0.001247 s, 7833 calls,      7.578098 s total
PROFILER:                 augmentOverlap     0.001892 +/-     0.001987 s, 17394 calls,     32.907163 s total
PROFILER:                     changeGrid     0.000058 +/-     0.000001 s, 8582 calls,      0.500511 s total
PROFILER:        ColumnBundle::randomize     0.015085 +/-     0.000110 s,   16 calls,      0.241367 s total
PROFILER:                     diagouterI     0.021280 +/-     0.005301 s, 3456 calls,     73.544476 s total
PROFILER:              EdensityAndVscloc     0.079313 +/-     0.035900 s,  214 calls,     16.973007 s total
PROFILER:                     EnlAndGrad     0.002293 +/-     0.003010 s, 9081 calls,     20.827084 s total
PROFILER:            ExCorrCommunication     0.009513 +/-     0.018004 s, 1319 calls,     12.547590 s total
PROFILER:               ExCorrFunctional     0.000560 +/-     0.000090 s,  224 calls,      0.125426 s total
PROFILER:                    ExCorrTotal     0.058684 +/-     0.032064 s,  224 calls,     13.145296 s total
PROFILER:                   Idag_DiagV_I     0.030879 +/-     0.017481 s, 2563 calls,     79.143423 s total
PROFILER:                    initWeights     0.086904 +/-     0.000000 s,    1 calls,      0.086904 s total
PROFILER:                    inv(matrix)     0.000489 +/-     0.000046 s, 2112 calls,      1.032926 s total
PROFILER:            matrix::diagonalize     0.002893 +/-     0.001632 s, 5843 calls,     16.902346 s total
PROFILER:                    matrix::set     0.000009 +/-     0.000015 s, 282358 calls,      2.485250 s total
PROFILER:            orthoMatrix(matrix)     0.000436 +/-     0.001291 s, 2899 calls,      1.265371 s total
PROFILER:     RadialFunctionR::transform     0.005908 +/-     0.009892 s,  114 calls,      0.673527 s total
PROFILER:                    reduceKmesh     0.000003 +/-     0.000000 s,    1 calls,      0.000003 s total
PROFILER:   VanDerWaalsD3::energyAndGrad     0.635057 +/-     0.035085 s,    7 calls,      4.445397 s total
PROFILER:               WavefunctionDrag     0.428603 +/-     0.092222 s,    3 calls,      1.285810 s total
PROFILER:                            Y*M     0.000818 +/-     0.000683 s, 38003 calls,     31.079245 s total
PROFILER:                          Y1^Y2     0.000729 +/-     0.000884 s, 25950 calls,     18.909055 s total

MEMUSAGE:                   ColumnBundle    11.127254 GB
MEMUSAGE:        complexScalarFieldTilde     0.024719 GB
MEMUSAGE:                    IndexArrays     0.050169 GB
MEMUSAGE:                         matrix     0.112294 GB
MEMUSAGE:                           misc     0.015088 GB
MEMUSAGE:                     RealKernel     0.008603 GB
MEMUSAGE:                    ScalarField     0.868688 GB
MEMUSAGE:               ScalarFieldTilde     0.617363 GB
MEMUSAGE:                          Total    11.912136 GB
